LAMMPS (3 Mar 2020)
OMP_NUM_THREADS environment is not set. Defaulting to 1 thread. (../comm.cpp:94)
  using 1 OpenMP thread(s) per MPI task
#SETUP
# Runs on the first loop only
shell del *.dump     # delete all dump files before first run CAREFUL WITH THIS
shell del restart.time*     # delete all current restart files before first run
shell lmp_serial -in in.run_setup     # first run of file, generate first restart file

#VARIABLES
variable N         equal  1000 #MUST BE SAME AS SETUP FILE FOR PHASEPLOT
variable len       equal  15  #MUST BE SAME AS SETUP FILE FOR PHASEPLOT
variable T         equal  0.5
variable t_step    equal  0.005 #originally 0.005
variable mix_steps index  50000 50000 50000 50000 50000 50000
variable mix_tau   equal  ${t_step}*${mix_steps}
variable mix_tau   equal  0.005*${mix_steps}
variable mix_tau   equal  0.005*50000
variable run_steps equal  50000 # steps to run simulation in order to reach steady state
variable run_tau   equal  ${t_step}*${run_steps} # this is the time in LJ units
variable run_tau   equal  0.005*${run_steps} 
variable run_tau   equal  0.005*50000 
#1000 particles averages 35,000 steps per minute

#LOOP START
label loop  #start loop from here
read_restart restart.time*
  restoring atom style molecular from restart
  orthogonal box = (-50 -50 -50) to (50 50 50)
  1 by 1 by 1 MPI processor grid
  restoring pair style lj/cut from restart
  restoring bond style harmonic from restart
  restoring angle style harmonic from restart
  15000 atoms
  14000 bonds
  13000 angles
  2 = max # of 1-2 neighbors
  2 = max # of 1-3 neighbors
  4 = max # of 1-4 neighbors
  6 = max # of special neighbors
  special bonds CPU = 0.013963 secs
  read_restart CPU = 0.0339088 secs
# this reads in latest restart file, * is wildcard for timestep


# THERMAL
timestep ${t_step}
timestep 0.005
thermo   100
thermo_style custom step time temp press pe ke etotal vol
thermo_modify norm no


# DUMP OUTPUT
dump  1  all custom 100 output_T_${T}_time_*.dump id mol type x y z vx vy vz
dump  1  all custom 100 output_T_0.5_time_*.dump id mol type x y z vx vy vz
# dumps all positions etc every N  steps
dump_modify 1 sort id

# FIX
fix 2 all nph iso ${T} ${T} 100   #changed from T = 0.5 to match variable T
fix 2 all nph iso 0.5 ${T} 100   
fix 2 all nph iso 0.5 0.5 100   
fix 3 all langevin ${T} ${T} 1 123456 #as above
fix 3 all langevin 0.5 ${T} 1 123456 
fix 3 all langevin 0.5 0.5 1 123456 
run ${mix_steps}
run 50000
Neighbor list info ...
  update every 1 steps, delay 10 steps, check yes
  max neighbors/atom: 2000, page size: 100000
  master list distance cutoff = 1.42
  ghost atom cutoff = 1.9
  binsize = 0.71, bins = 141 141 141
  1 neighbor lists, perpetual/occasional/extra = 1 0 0
  (1) pair lj/cut, perpetual
      attributes: half, newton on
      pair build: half/bin/newton
      stencil: half/bin/3d/newton
      bin: standard
Per MPI rank memory allocation (min/avg/max) = 23.01 | 23.01 | 23.01 Mbytes
Step Time Temp Press PotEng KinEng TotEng Volume 
       0            0            0 -7.3096072e-15    137077.84            0    137077.84 1000000 
     100          0.5    2.4090034 -0.010801911    38283.451    54198.962    92482.413    998732.74 
     200            1    1.4204008 0.0099546426    31471.682    31956.887    63428.569    994950.74 
     300          1.5    1.2108426   0.01240265    20464.498    27242.142     47706.64    989309.21 
     400            2   0.81450035 -0.0030874579    18425.815    18325.036    36750.851    982821.23 
     500          2.5   0.67938096 -0.029586157    15408.868    15285.052     30693.92    976650.86 
     600            3   0.60628082  0.016914243    13300.587    13640.409    26940.996    970999.31 
     700          3.5   0.59609664  0.001978368    11520.605     13411.28    24931.886    965550.11 
     800            4   0.53270934 0.00051073474    11389.308    11985.161    23374.469    960001.81 
     900          4.5   0.53216239 -0.0032965669    10646.449    11972.856    22619.304    954412.61 
    1000            5   0.52209732   0.00627982    10463.198    11746.407    22209.605    948980.88 
    1100          5.5   0.51412537 0.0006604852    10379.269     11567.05    21946.318    943845.89 
    1200            6   0.51039726 -0.0024416843    10225.489    11483.173    21708.661    938997.68 
    1300          6.5   0.50402029 0.0035498039    10156.435    11339.701    21496.136     934349.7 
    1400            7   0.50235539 -0.0026673749    10224.927    11302.243     21527.17    929842.25 
    1500          7.5   0.50379053  0.003850531    10098.812    11334.531    21433.343    925431.47 
    1600            8   0.50116376 0.00029285974        10164    11275.433    21439.433    921105.18 
    1700          8.5   0.50481583 0.0012195247    10030.154    11357.599    21387.753    916846.74 
    1800            9   0.50268375 -0.00066190468    10008.728     11309.63    21318.358    912654.87 
    1900          9.5   0.50192079 0.0024413711    10008.545    11292.465     21301.01    908523.99 
    2000           10   0.50646362 -0.00070301201    9956.8254    11394.672    21351.497    904455.94 
    2100         10.5   0.50118854 0.00099426475     10036.71     11275.99    21312.701    900439.82 
    2200           11   0.50184093 0.00087152199     9875.924    11290.668    21166.592    896476.12 
    2300         11.5   0.49807285 0.0010272804    10068.189    11205.892    21274.081    892560.52 
    2400           12   0.49825691 -0.00027609546    10025.533    11210.033    21235.566    888693.72 
    2500         12.5   0.50100666 0.00095633337     10089.38    11271.898    21361.278    884871.36 
    2600           13   0.49647188 0.00090120636     10070.11    11169.873    21239.983    881092.83 
    2700         13.5   0.49742091 0.0004049866    10057.039    11191.224    21248.263    877355.63 
    2800           14   0.49858313 0.00062363784    9954.6189    11217.372    21171.991    873658.49 
    2900         14.5   0.49542318 0.0018092648    10001.829    11146.278    21148.107    870001.54 
    3000           15   0.50082154 -0.00026876116    10049.214    11267.733    21316.948    866383.48 
    3100         15.5   0.49974422 0.00036305994    10007.826    11243.495    21251.322       862800 
    3200           16   0.50211678 -0.00039232287    10127.698    11296.874    21424.572    859252.29 
    3300         16.5   0.50491469 0.0030788911    9956.5738    11359.823    21316.397    855737.64 
    3400           17   0.49903647 -0.00049705931    10142.337    11227.572    21369.909    852258.82 
    3500         17.5    0.5065745 0.0020879794    10029.733    11397.166      21426.9    848811.23 
    3600           18   0.50421301 -0.00039114614    10087.308    11344.036    21431.344    845396.19 
    3700         18.5   0.50238248 0.0019415917    10115.828    11302.852     21418.68    842011.86 
    3800           19   0.50524247 -0.00059693152     10168.63    11367.198    21535.828    838658.68 
    3900         19.5   0.50288968 0.0024354516    10090.676    11314.264     21404.94    835333.43 
    4000           20   0.50161843 9.6973547e-05    9955.8562    11285.662    21241.519    832039.17 
    4100         20.5   0.50018099 0.0011044434    10074.021    11253.322    21327.343    828773.89 
    4200           21   0.49807705 0.00018287603    10102.951    11205.986    21308.938    825535.99 
    4300         21.5   0.50472361 0.0010203136    9987.1729    11355.524    21342.697    822324.98 
    4400           22   0.49907343 0.0013688271    10031.184    11228.404    21259.587    819140.43 
    4500         22.5   0.50539709 -9.906907e-05    10006.353    11370.676     21377.03     815983.8 
    4600           23   0.50089277  0.002424248    10169.568    11269.336    21438.904    812852.11 
    4700         23.5   0.50089113 -0.00062256973    10043.338    11269.299    21312.637    809747.43 
    4800           24   0.50364045 0.0018104344    10033.255    11331.155    21364.409    806665.67 
    4900         24.5    0.5029674 0.0010252771    10043.114    11316.012    21359.126    803609.33 
    5000           25   0.50319475 0.00085128743    10119.841    11321.127    21440.968    800577.22 
    5100         25.5   0.49640213 0.00071714528    10167.204    11168.303    21335.508     797568.5 
    5200           26   0.49383662 0.0010589231    9974.1091    11110.583    21084.692    794582.38 
    5300         26.5   0.49670548 0.00064707157    10032.842    11175.128     21207.97    791619.03 
    5400           27    0.5037773 0.00046243833    9841.7473    11334.234    21175.981    788677.58 
    5500         27.5   0.49816904 0.00042966063     10002.72    11208.056    21210.776    785756.78 
    5600           28   0.50256054 0.0011765869    9956.1525    11306.858    21263.011     782858.2 
    5700         28.5   0.50232087 0.0015426901    9965.7324    11301.466    21267.199    779981.69 
    5800           29   0.50517136 0.0015706784    9932.1829    11365.598    21297.781    777127.94 
    5900         29.5   0.49939085 0.00083223199    10065.414    11235.545    21300.959    774295.27 
    6000           30   0.49600303 -0.00026428027    9984.1778    11159.324    21143.502    771482.41 
    6100         30.5   0.49410276 0.0015719097    9999.0405    11116.571    21115.611    768688.58 
    6200           31   0.49504172 0.00042163919    10009.816    11137.696    21147.512    765916.43 
    6300         31.5   0.49917408 0.00034170484    9874.1233    11230.668    21104.791    763163.72 
    6400           32   0.49500674 0.0012057051    9913.4903    11136.909    21050.399    760430.32 
    6500         32.5   0.49904651 0.0012979767    10000.338    11227.798    21228.135     757717.1 
    6600           33   0.49939315 0.0014111521    10035.744    11235.597    21271.341    755022.79 
    6700         33.5   0.49972285 0.00043646278    10020.858    11243.014    21263.872     752347.7 
    6800           34   0.49847796 0.0020279035    10063.104    11215.006    21278.111    749689.83 
    6900         34.5   0.50174863 -0.00011796264    10043.595    11288.592    21332.186    747050.98 
    7000           35   0.50691989 0.00091182969    9946.3825    11404.937     21351.32    744429.66 
    7100         35.5   0.50142627 0.0025083986    9939.4035    11281.339    21220.742    741825.15 
    7200           36   0.50113125 -0.00067663588    10064.762    11274.701    21339.463    739239.39 
    7300         36.5   0.50092433 0.00065666686    10063.085    11270.046    21333.131    736669.52 
    7400           37   0.49737386 0.0020084893    10088.384    11190.166     21278.55    734116.25 
    7500         37.5   0.49362766 -0.0013101866    10166.968    11105.882     21272.85    731580.83 
    7600           38   0.49704705 0.0030585679    10077.135    11182.813    21259.948    729061.42 
    7700         38.5    0.4966993 -0.0009973636    10025.598    11174.989    21200.587    726560.24 
    7800           39   0.49578486 0.0018343181    10073.665    11154.416    21228.081    724074.67 
    7900         39.5    0.4954663 0.0013700931    10041.998    11147.248    21189.247     721604.5 
    8000           40   0.49641959 -0.00077303531    10013.675    11168.696    21182.371    719151.13 
    8100         40.5    0.4953135 0.00074745283    10004.222    11143.811    21148.032    716711.77 
    8200           41    0.4968048 0.00014126559    9972.6299    11177.363    21149.993    714288.76 
    8300         41.5   0.49744492 0.0018122555     10073.37    11191.765    21265.134    711880.28 
    8400           42   0.50033982 -0.00017091288    10060.168    11256.896    21317.064    709487.89 
    8500         42.5    0.5019614 0.0019560468    9998.6359    11293.379    21292.015    707110.67 
    8600           43   0.50038418 -0.00039337358     9985.526    11257.893    21243.419    704748.16 
    8700         43.5   0.49668858 0.0023740989    10081.721    11174.748    21256.469    702399.93 
    8800           44   0.50012836 0.0013139731    10098.912    11252.138     21351.05     700068.1 
    8900         44.5   0.49532527 0.00010331306    10113.763    11144.076    21257.839    697750.67 
    9000           45   0.49640212 0.0018276521    10048.752    11168.303    21217.055    695446.37 
    9100         45.5   0.50204471  0.002469106    10027.773    11295.253    21323.026     693156.5 
    9200           46   0.50287403 0.00018110532    10070.743    11313.911    21384.654    690880.52 
    9300         46.5   0.50274984 0.0022193422    9996.5886    11311.117    21307.706    688617.34 
    9400           47   0.49915231 -0.00088444731     10159.86    11230.178    21390.038    686368.73 
    9500         47.5   0.49918073 0.00068816423    10106.093    11230.818    21336.911    684132.78 
    9600           48   0.49819965 0.0020306281    10085.452    11208.745    21294.196    681910.05 
    9700         48.5   0.50293275 0.00012864517     10018.39    11315.233    21333.622     679701.2 
    9800           49   0.49849902 0.0025537496    10111.421     11215.48    21326.901    677505.44 
    9900         49.5   0.50105176 -0.0010169598    10053.752    11272.913    21326.665    675323.85 
   10000           50   0.50312111 0.0030228262    10017.214     11319.47    21336.684    673153.01 
   10100         50.5    0.4966775 -0.0006495311    10166.621    11174.499    21341.119    670996.94 
   10200           51   0.49616911  0.002869606    10109.381    11163.061    21272.442    668851.58 
   10300         51.5   0.49953204 0.00099585501    10035.952    11238.722    21274.674    666720.52 
   10400           52     0.495588 0.00052873557    10157.599    11149.987    21307.586    664601.46 
   10500         52.5   0.49812155 9.4660033e-05    10017.333    11206.988    21224.321    662494.17 
   10600           53   0.50080972 0.0040055164    10045.039    11267.467    21312.507    660398.35 
   10700         53.5   0.50499977 -0.00033693777     9990.127    11361.737    21351.864    658316.51 
   10800           54   0.50617145 0.0012689382    10094.417    11388.098    21482.516    656244.84 
   10900         54.5   0.50589878 0.0020455289    10108.002    11381.964    21489.966    654185.71 
   11000           55   0.49663491 0.00093199894    10183.298    11173.541    21356.839    652138.37 
   11100         55.5   0.50545494 0.0014625279    10188.856    11371.978    21560.834    650103.32 
   11200           56   0.50330695 0.0015789491    10202.358    11323.651     21526.01    648078.92 
   11300         56.5   0.50462093 -0.00022238295    10262.126    11353.214     21615.34    646065.82 
   11400           57   0.50566481 0.0028705858    10205.121      11376.7    21581.821    644062.88 
   11500         57.5   0.50088671 -4.3422622e-05      10208.9      11269.2    21478.099    642071.96 
   11600           58   0.50242635  0.002377343    10117.826    11303.839    21421.665    640091.25 
   11700         58.5   0.50895923 0.0015018073    9945.5893    11450.819    21396.409    638121.78 
   11800           59   0.49786117 -0.00084376882    10111.802     11201.13    21312.931    636163.24 
   11900         59.5   0.49981287 0.0018337289    10029.936     11245.04    21274.976    634215.18 
   12000           60   0.50029584 0.00090305278     10178.99    11255.906    21434.896    632279.12 
   12100         60.5   0.50103281 0.0010397278    10112.629    11272.487    21385.116    630352.85 
   12200           61    0.5000319 -0.00035586362    10107.617    11249.968    21357.585     628436.8 
   12300         61.5   0.50029016 0.0025757344    10139.611    11255.778    21395.389    626530.75 
   12400           62   0.50082515 -0.00015295514    10107.247    11267.815    21375.061    624636.39 
   12500         62.5   0.49799748 0.0010951306    10066.297    11204.196    21270.493    622750.78 
   12600           63   0.49824814 0.0014598775    9995.0995    11209.836    21204.935    620875.63 
   12700         63.5   0.49540952 0.0011564736    9980.8608    11145.971    21126.832    619009.55 
   12800           64   0.49589732 -0.00061798397     10072.01    11156.946    21228.956    617153.85 
   12900         64.5   0.49245473  0.003417492    10208.376    11079.493    21287.868     615307.3 
   13000           65   0.50207771 -0.000987897    10065.784    11295.995    21361.779    613472.32 
   13100         65.5   0.50299743 0.0028838227    10044.355    11316.688    21361.042    611646.21 
   13200           66   0.50025124 -0.00096531802    10039.999    11254.903    21294.902    609830.57 
   13300         66.5   0.50331701 0.0012867362    9937.7973    11323.878    21261.675    608023.16 
   13400           67   0.49966767 0.0014708066    9896.4493    11241.773    21138.222    606225.29 
   13500         67.5   0.49455619 -0.00018479428     9972.223    11126.772    21098.995    604437.84 
   13600           68    0.4999492  0.003291149    10007.723    11248.107     21255.83    602659.17 
   13700         68.5   0.49722861 -0.0017306627    9998.5784    11186.898    21185.476    600890.91 
   13800           69   0.49841735 0.0036201417    9890.4972    11213.643     21104.14    599130.48 
   13900         69.5   0.49697523 0.00051932055    9883.7421    11181.197    21064.939    597379.99 
   14000           70   0.49936026 0.00087051198    10029.193    11234.857     21264.05    595638.21 
   14100         70.5   0.49746466 0.00058658089     10029.91    11192.209    21222.118    593905.01 
   14200           71   0.50012591 4.0671138e-06    10111.829    11252.083    21363.912    592180.47 
   14300         71.5   0.50134737 0.0018980416    10123.145    11279.564    21402.709    590464.41 
   14400           72   0.50197207 0.00012834925     9964.851    11293.619     21258.47    588756.93 
   14500         72.5   0.49654807 0.0029230006    10084.904    11171.587    21256.491    587058.99 
   14600           73   0.49950825 6.4221783e-05    10089.505    11238.186    21327.691    585370.38 
   14700         73.5    0.4956486 0.0015498983    10010.766     11151.35    21162.116    583689.58 
   14800           74   0.49679308 0.0017217247    9984.8937    11177.099    21161.993    582016.85 
   14900         74.5   0.49370419 -8.6926172e-05    10115.529    11107.604    21223.133    580352.72 
   15000           75   0.49902359  0.003004523    10061.554    11227.282    21288.836    578696.88 
   15100         75.5   0.49861835 -0.00052046296    10156.774    11218.165    21374.939    577049.93 
   15200           76   0.50041101 0.0030227712    9996.9388    11258.497    21255.436    575410.63 
   15300         76.5   0.50202999 0.0011603355    10067.594    11294.922    21362.516    573779.75 
   15400           77   0.49740086 -0.0017930205    10044.588    11190.773    21235.362    572156.26 
   15500         77.5   0.49822345 0.0048695285    10010.591     11209.28    21219.872    570539.66 
   15600           78   0.50019637 -0.00098536271    9934.9958    11253.668    21188.664    568933.31 
   15700         78.5   0.49717158 0.0025429691    9918.3653    11185.615     21103.98     567334.1 
   15800           79    0.4993264 0.0013874395    10050.842    11234.095    21284.937    565742.32 
   15900         79.5   0.50354055 8.823904e-06    10048.031    11328.907    21376.938    564158.21 
   16000           80   0.49585172 0.0026886401    10159.447     11155.92    21315.367    562582.44 
   16100         80.5   0.50164058 -0.0016073233     9942.558    11286.161    21228.719    561014.85 
   16200           81   0.49801265 0.0022003649    10009.253    11204.538    21213.791    559452.99 
   16300         81.5   0.49604314 0.0012602662    10172.097    11160.227    21332.324    557898.77 
   16400           82   0.50364374 0.00080662531    9956.9698    11331.229    21288.199    556352.48 
   16500         82.5   0.49189363 -0.00083679811    10147.184    11066.869    21214.053    554813.78 
   16600           83   0.49770098 0.0034927206    10091.127    11197.525    21288.653     553281.8 
   16700         83.5   0.50113561 0.00042634143    10057.187      11274.8    21331.986    551758.17 
   16800           84   0.49531516 0.00086121273    10125.488    11143.848    21269.336     550241.1 
   16900         84.5   0.49817119 0.0026157271    10058.611    11208.104    21266.715    548731.71 
   17000           85   0.49985649 -0.00021877607    10108.041    11246.021    21354.062    547230.22 
   17100         85.5   0.50272864 0.0026212567    10012.617     11310.64    21323.258    545735.78 
   17200           86   0.49675648 -0.00046674215    10092.409    11176.276    21268.685    544248.35 
   17300         86.5   0.50078948 0.0021276861    10067.791    11267.012    21334.803    542766.71 
   17400           87   0.49898949 0.00048283635    10070.203    11226.515    21296.718    541292.79 
   17500         87.5   0.50063994 -0.00024239203      10106.5    11263.648    21370.148    539825.09 
   17600           88   0.49971742 0.0010962551    10060.923    11242.892    21303.815     538363.8 
   17700         88.5    0.4965352 0.0015766378    9996.0931    11171.297     21167.39    536909.43 
   17800           89   0.49844667 0.0030711618    9967.8846    11214.302    21182.187    535461.97 
   17900         89.5   0.49778531 -0.00074703886    10100.987    11199.423    21300.409    534022.04 
   18000           90   0.49526003 0.0019649252    10104.671    11142.608    21247.279    532588.25 
   18100         90.5   0.50146342 0.0011572011    10104.462    11282.175    21386.637    531162.08 
   18200           91   0.49856121 0.0014602683    10092.625    11216.879    21309.505    529742.13 
   18300         91.5   0.49930014 -0.0016709402    9984.2043    11233.504    21217.708    528329.56 
   18400           92   0.49715938  0.002484792    10004.692     11185.34    21190.033    526922.45 
   18500         92.5   0.49694829 -4.9225705e-05    10044.276    11180.591    21224.867    525521.91 
   18600           93   0.49905136 0.0026483802    10094.578    11227.907    21322.485    524126.59 
   18700         93.5   0.49917166 -0.00097640509    10029.089    11230.614    21259.702    522738.62 
   18800           94   0.50299205 0.0041997152    10010.432    11316.567    21326.998    521356.63 
   18900         94.5   0.49942674 -0.0012349548    10124.002    11236.353    21360.355    519982.65 
   19000           95   0.50604896 0.0033519571    10065.755    11385.342    21451.097     518613.5 
   19100         95.5    0.5007844 -0.00050526613    10107.118    11266.898    21374.015    517251.96 
   19200           96    0.5030791 0.00052063502    10081.095    11318.525     21399.62    515895.98 
   19300         96.5   0.50384786 0.0024677732    10115.068    11335.821    21450.889    514545.78 
   19400           97   0.50304504 0.00018481343    10019.999    11317.759    21337.758    513201.67 
   19500         97.5   0.49675529 0.00075507349    10025.751    11176.249        21202    511862.75 
   19600           98   0.49713745 0.0016209603    9990.2248    11184.847    21175.072    510530.19 
   19700         98.5   0.50084596  0.002043382    9985.8183    11268.283    21254.101    509203.52 
   19800           99   0.50030909 -0.00054390986    10039.846    11256.204     21296.05    507883.01 
   19900         99.5   0.49807912 0.0019071835    10105.522    11206.033    21311.556    506567.92 
   20000          100   0.49796533 0.0019875044    10008.212    11203.473    21211.685    505259.51 
   20100        100.5   0.49683384 0.0025765435    10035.221    11178.016    21213.237    503956.86 
   20200          101   0.50431169 -0.00055296532    10007.716    11346.257    21353.972    502660.49 
   20300        101.5   0.50109781 0.0027720861    10210.169    11273.949    21484.118    501367.82 
   20400          102   0.50450372 -0.00025751661    9984.8945    11350.577    21335.471    500081.58 
   20500        102.5   0.50937518 0.0052775007    10028.742    11460.177     21488.92    498800.63 
   20600          103   0.50679346 0.00037210563    9972.3692    11402.093    21374.462    497526.26 
   20700        103.5   0.50694419 0.0033079583    10111.596    11405.484    21517.079    496257.22 
   20800          104   0.50420358 0.0025620973    10024.604    11343.824    21368.429    494994.34 
   20900        104.5   0.50100233 0.0032416945    10105.921    11271.801    21377.722    493736.87 
   21000          105   0.49678418 0.00081271464    10176.947    11176.899    21353.846    492485.28 
   21100        105.5   0.50509213  0.002325367    9986.4296    11363.815    21350.245    491238.46 
   21200          106   0.50048688  0.002075076    10079.918    11260.204    21340.122    489996.91 
   21300        106.5   0.50578158 -0.001927149    10153.139    11379.327    21532.466    488760.69 
   21400          107   0.50534695 0.0027428824    10094.723    11369.548    21464.271    487527.86 
   21500        107.5   0.49695535 -0.0012547695    10297.186     11180.75    21477.936    486301.41 
   21600          108   0.50306002 0.0042330418    10044.857    11318.096    21362.952    485080.02 
   21700        108.5   0.49691749 -0.0037641767     10126.44    11179.898    21306.339    483864.49 
   21800          109   0.49934932 0.0050310773    10058.813    11234.611    21293.424    482652.65 
   21900        109.5   0.50004206 0.00075337231    10041.279    11250.196    21291.475    481447.02 
   22000          110   0.50057169 0.00071309284     10134.81    11262.112    21396.923    480246.85 
   22100        110.5   0.49701584 0.00060278798    10100.638    11182.111    21282.749    479051.39 
   22200          111   0.49990888 0.0011149471    10055.533      11247.2    21302.733    477860.77 
   22300        111.5   0.49990641 0.0032519673    10175.185    11247.144     21422.33    476675.07 
   22400          112   0.49878456 -0.00096571173    10091.013    11221.904    21312.917    475495.64 
   22500        112.5   0.49825437 0.0042253309    10050.642    11209.976    21260.618    474320.72 
   22600          113    0.5001891 -0.0024297482    9972.1458    11253.504     21225.65    473151.16 
   22700        113.5   0.49580203 0.0010311063     10076.26    11154.802    21231.062    471984.69 
   22800          114   0.49483036 0.0011054651    10156.769    11132.941     21289.71    470823.13 
   22900        114.5   0.49488321 0.0025624122    10018.618     11134.13    21152.748    469666.82 
   23000          115   0.49666481 -0.00026268665    9895.4798    11174.213    21069.693    468516.23 
   23100        115.5   0.49282544 0.0014808699    9944.8225    11087.833    21032.656    467370.61 
   23200          116   0.49382362 0.0029404856    10011.714    11110.291    21122.004    466229.18 
   23300        116.5   0.49659529 -0.001406417     10033.08    11172.649    21205.729    465093.23 
   23400          117   0.50059565 0.0061154357     9982.556    11262.651    21245.207    463961.11 
   23500        117.5   0.50106461 -0.0020691553    9987.3562    11273.202    21260.558    462834.81 
   23600          118   0.50248766 0.0034410585    10177.016    11305.219    21482.235    461712.06 
   23700        118.5    0.5037566 0.0016648668    10126.376    11333.768    21460.144    460594.51 
   23800          119    0.5028685 -0.00067217151    10092.467    11313.787    21406.254    459480.95 
   23900        119.5   0.49727911 0.0044196704    10091.002    11188.034    21279.036    458371.32 
   24000          120   0.49735925 0.00055197716     9985.616    11189.837    21175.453    457267.01 
   24100        120.5   0.49220109 0.0044864037    10010.856    11073.786    21084.643     456167.6 
   24200          121   0.49060025 -0.00031191967     10040.33     11037.77      21078.1    455073.31 
   24300        121.5   0.49576146 0.00051703536    9934.6606    11153.889     21088.55    453982.48 
   24400          122   0.49723333 0.0017533276    9938.2149    11187.004    21125.219    452895.55 
   24500        122.5   0.49419918 0.0027858614    10007.228     11118.74    21125.969    451813.03 
   24600          123   0.49457802 -0.0011243525    10060.295    11127.264    21187.559    450735.92 
   24700        123.5   0.49971861 0.0031831494    10070.357    11242.919    21313.277    449662.09 
   24800          124   0.50139138 -0.00042904097    10123.994    11280.554    21404.548    448592.54 
   24900        124.5   0.50039995 0.0018879946     10136.43    11258.248    21394.678    447526.52 
   25000          125   0.49952442 0.0030922518    10148.729     11238.55    21387.279    446465.69 
   25100        125.5   0.49812587 -0.0014491253    10151.517    11207.085    21358.602    445410.23 
   25200          126   0.49567688 0.0025705128    10230.295    11151.986    21382.282    444357.65 
   25300        126.5   0.50403978 0.00065154651    10072.941    11340.139     21413.08    443309.83 
   25400          127   0.49343713 0.0021485153    10157.786    11101.595    21259.382    442266.02 
   25500        127.5   0.50141721 0.0020555421      10114.6    11281.135    21395.735    441226.72 
   25600          128   0.49871273 0.0030292244    10118.308    11220.288    21338.597     440191.6 
   25700        128.5   0.49852557 0.0013460669    9987.5007    11216.078    21203.578    439160.84 
   25800          129   0.49681742 -0.0003234699    10051.889    11177.647    21229.536    438133.79 
   25900        129.5   0.49736021 0.0044746113     9936.289    11189.859    21126.148     437110.4 
   26000          130   0.50170356 0.00062336662    9971.8498    11287.578    21259.427    436091.96 
   26100        130.5   0.49782205 0.0018790191    10086.263    11200.249    21286.512    435076.65 
   26200          131   0.49838241 0.0041520554    10088.709    11212.857    21301.566    434065.59 
   26300        131.5   0.50435721 -0.0032474928    10007.545    11347.281    21354.826     433058.7 
   26400          132   0.50319005 0.0029909345    10055.259    11321.021    21376.281     432054.2 
   26500        132.5   0.49979515 0.0014253714    10058.893    11244.641    21303.534    431053.94 
   26600          133   0.50067014 0.0040140125    10047.997    11264.327    21312.324    430057.96 
   26700        133.5   0.49704612 0.0025246606     10114.06    11182.792    21296.852    429066.62 
   26800          134   0.49766316 0.00093356133    10026.496    11196.675     21223.17    428079.46 
   26900        134.5   0.50103118 0.0024357346    9952.3271     11272.45    21224.777    427095.39 
   27000          135   0.49771197 0.0014052205    10093.365    11197.773    21291.138    426115.64 
   27100        135.5   0.50306612 0.0050999654     10025.56    11318.233    21343.793    425139.81 
   27200          136   0.50270278 -0.0026753717    10052.679    11310.058    21362.737    424168.84 
   27300        136.5   0.50295165  0.007443162    10124.127    11315.658    21439.784     423200.3 
   27400          137   0.49495533 -0.0017320015    10294.367    11135.753    21430.119    422236.68 
   27500        137.5   0.50031966 0.0040745242    10236.124    11256.442    21492.566    421275.93 
   27600          138   0.49979829 0.0015865573     10154.86    11244.712    21399.572    420319.04 
   27700        138.5   0.50207328 0.00059362637    10193.383    11295.896    21489.279    419365.41 
   27800          139   0.50445063 0.0046408507    9976.6448    11349.382    21326.027    418414.85 
   27900        139.5   0.50105836 0.00081564284    10032.453    11273.061    21305.514    417468.43 
   28000          140   0.50090257 0.0040856215    9987.1024    11269.556    21256.659    416524.92 
   28100        140.5   0.50116661 0.00080679346    9958.5834    11275.497     21234.08    415585.25 
   28200          141    0.4966242 0.0025660854    10043.869      11173.3    21217.169     414648.7 
   28300        141.5   0.49838467 0.0012895646    10094.928    11212.908    21307.836    413715.94 
   28400          142   0.49936627 0.0014420196    10100.222    11234.992    21335.214    412786.26 
   28500        142.5   0.49510168 0.0024755565    10139.118    11139.045    21278.163    411860.24 
   28600          143   0.50127974 0.00089218998    10034.748    11278.042     21312.79    410938.04 
   28700        143.5   0.49983279 0.0015881369    10009.431    11245.488    21254.919    410018.17 
   28800          144   0.50049004 -0.00082380774    10198.309    11260.275    21458.584    409101.78 
   28900        144.5   0.50382715 0.0052255581    10062.466    11335.355    21397.821    408188.94 
   29000          145   0.50621373 0.00058528774    9973.7921     11389.05    21362.842    407280.61 
   29100        145.5   0.50944855 0.0024710801    10032.772    11461.828      21494.6    406375.17 
   29200          146   0.50413795 -0.0012788341    10120.106    11342.348    21462.453    405473.83 
   29300        146.5   0.50120887 0.0052703454    10033.297    11276.448    21309.745    404574.57 
   29400          147   0.49546557 -0.0027112297    10077.962    11147.232    21225.194    403680.03 
   29500        147.5   0.49464886 0.0029152518    10073.637    11128.857    21202.495    402788.05 
   29600          148   0.49606159 0.00070103364    10052.574    11160.642    21213.215    401899.43 
   29700        148.5   0.49167952 0.0043519827    10177.209    11062.052    21239.261    401013.97 
   29800          149   0.49741846 0.0025068536    10089.811    11191.169     21280.98     400132.4 
   29900        149.5   0.49949891 -0.00043704816    10154.489    11237.976    21392.465    399254.66 
   30000          150   0.50122979 0.0025823927     10162.18    11276.918    21439.099    398379.83 
   30100        150.5   0.50433237 6.2784999e-05    10149.299    11346.722    21496.021    397508.18 
   30200          151   0.50262687 0.0033985499    10151.008    11308.351    21459.358    396638.99 
   30300        151.5    0.4998236 0.0010436184    10127.656    11245.281    21372.938    395773.14 
   30400          152   0.49368408 -0.003094094    10215.959    11107.151    21323.111    394909.45 
   30500        152.5   0.49624563 0.0062936046    10139.055    11164.782    21303.837    394048.21 
   30600          153   0.49418386 0.00084212141    10236.296    11118.396    21354.692    393191.75 
   30700        153.5   0.49745232 0.00010863814    10187.631    11191.931    21379.562    392338.61 
   30800          154   0.50124612 0.0026526232    10237.331    11277.286    21514.617    391488.25 
   30900        154.5   0.49878992 0.0011778751    10106.674    11222.025    21328.699    390641.13 
   31000          155   0.49679859 0.00044832688    10082.029    11177.223    21259.252    389797.74 
   31100        155.5   0.50016649  0.004684756    10009.796    11252.996    21262.792    388956.67 
   31200          156   0.49970361 -0.00051642933    10099.791    11242.582    21342.372    388119.17 
   31300        156.5    0.4979303 0.0032780436    10083.794    11202.685    21286.479    387283.73 
   31400          157   0.49963828 0.0028185031    9943.8746    11241.112    21184.987    386451.48 
   31500        157.5   0.49840614 -0.0012410233    10021.008     11213.39    21234.398    385622.32 
   31600          158   0.49903396 0.0010195624    9998.4265    11227.516    21225.942    384795.61 
   31700        158.5   0.49842648 0.0038917328    10116.104    11213.848    21329.952    383971.31 
   31800          159   0.50208403 0.0017253523    10055.223    11296.138    21351.361    383150.67 
   31900        159.5   0.49892152 0.0011318619    10096.538    11224.986    21321.524    382332.85 
   32000          160   0.50481367 0.0042008263    9974.5905     11357.55    21332.141    381517.87 
   32100        160.5   0.50297299 0.0040479276    9978.3716    11316.138     21294.51    380706.34 
   32200          161   0.49647205 -0.0019658998    10016.089    11169.876    21185.966     379898.5 
   32300        161.5    0.5011841 0.0041129439     10130.17     11275.89     21406.06    379092.68 
   32400          162   0.49872184 0.0016858939    10130.725    11220.493    21351.218       378290 
   32500        162.5   0.49899696 0.0017082324    10093.976    11226.683    21320.659    377490.09 
   32600          163   0.50344153  0.004451223    10048.882    11326.679    21375.562    376693.25 
   32700        163.5   0.50051954 0.0027026979    10037.052    11260.939    21297.991    375899.71 
   32800          164   0.49764759 0.0046753102      10082.8    11196.324    21279.124    375108.33 
   32900        164.5    0.5014831 0.00060024881    10090.016    11282.618    21372.634    374319.89 
   33000          165   0.49847672 0.00026979816    10062.154    11214.979    21277.133    373534.16 
   33100        165.5   0.50043222 0.0038029297    9992.3426    11258.974    21251.317    372750.45 
   33200          166   0.49959256 0.0016045918    9958.5652    11240.083    21198.648     371969.5 
   33300        166.5    0.5028113 -0.0013258973    9994.3352      11312.5    21306.835     371190.5 
   33400          167   0.49954775 0.0035931042    10031.296    11239.075    21270.371     370414.2 
   33500        167.5   0.49719871 0.0029493584    10002.399    11186.225    21188.624    369641.38 
   33600          168   0.49224838 0.00099927679    10056.001     11074.85    21130.852    368871.47 
   33700        168.5   0.49728392 0.0019724659    9941.3601    11188.142    21129.502    368104.06 
   33800          169   0.49703607 0.0028497008    10146.133    11182.566    21328.698     367339.2 
   33900        169.5   0.50234705 0.00026944113    10072.197    11302.055    21374.252     366577.5 
   34000          170   0.49874136 0.0014599973    10073.946    11220.933    21294.878    365818.24 
   34100        170.5     0.504286 0.0033222663    10138.874    11345.679    21484.552    365062.02 
   34200          171   0.50085099 0.0042678907    10162.616    11268.396    21431.012    364308.72 
   34300        171.5   0.50001349 -0.0004672073    10196.677    11249.553    21446.231    363557.79 
   34400          172    0.5015148 0.0022776502    10088.952    11283.331    21372.282    362808.96 
   34500        172.5   0.50483406 -0.00027691688     10189.55    11358.009    21547.559    362062.58 
   34600          173    0.5061014 0.0017994647    10005.023    11386.522    21391.545    361318.26 
   34700        173.5   0.50035194 0.0024789884     10156.99    11257.168    21414.158    360576.34 
   34800          174   0.49536849 0.0013973669    10144.333    11145.048    21289.381    359837.29 
   34900        174.5   0.50109191 0.0026088738    10037.839    11273.816    21311.655    359101.25 
   35000          175   0.50037495 0.0019524771    10107.437    11257.686    21365.123    358367.66 
   35100        175.5   0.50051109 0.0030523169    10106.231    11260.749    21366.979    357636.62 
   35200          176   0.50202322 -0.00083972468    10017.627    11294.769    21312.396    356907.68 
   35300        176.5   0.50400532 0.0049429101    10149.699    11339.364    21489.062    356181.05 
   35400          177    0.5000535 0.0041477795    10033.308    11250.454    21283.762    355457.01 
   35500        177.5   0.49863304 0.00030234886    10027.769    11218.495    21246.265    354735.76 
   35600          178   0.50318437 0.0055076482    10122.767    11320.894    21443.661    354016.54 
   35700        178.5   0.50120443 -0.000896641    10074.171    11276.348    21350.519    353300.58 
   35800          179   0.50185811 0.0019622794    10084.557    11291.055    21375.612    352586.54 
   35900        179.5   0.50096809 0.0022436301    9991.9289    11271.031     21262.96    351874.72 
   36000          180   0.49684791 0.0021692171    10141.114    11178.333    21319.447     351165.1 
   36100        180.5   0.50191136 0.0031819945    10019.615    11292.253    21311.867    350458.16 
   36200          181   0.50350304 0.0027088405    10029.857    11328.063     21357.92    349753.79 
   36300        181.5   0.49860212 -0.00019633789    10063.383      11217.8    21281.183    349051.64 
   36400          182   0.49824533 0.0034914537    9993.1379    11209.772     21202.91     348351.1 
   36500        182.5    0.4950203 -0.00060662961    10000.529    11137.214    21137.744    347652.95 
   36600          183   0.49651589 0.0044739659    10052.747    11170.863     21223.61    346956.94 
   36700        183.5   0.50030931 -0.00082757258    10067.351    11256.209     21323.56    346263.89 
   36800          184   0.49785852 0.0040405848    10190.627     11201.07    21391.697    345572.64 
   36900        184.5    0.4997258 0.0027980851    10160.811    11243.081    21403.892    344883.93 
   37000          185   0.50243084 0.0015558473     10174.45     11303.94     21478.39    344198.05 
   37100        185.5    0.4975012 0.0031343043    10256.084    11193.031    21449.115    343514.39 
   37200          186   0.50397137 -1.663771e-05    10051.757      11338.6    21390.356    342833.07 
   37300        186.5   0.50526196 0.0057895166    10057.488    11367.636    21425.124     342154.1 
   37400          187   0.50621833 -0.00035137858    10113.816    11389.153    21502.969    341477.59 
   37500        187.5   0.51190847 0.0063346979    9970.2874    11517.173     21487.46    340802.84 
   37600          188   0.49516383 0.0026485881    10117.564    11140.443    21258.008     340130.9 
   37700        188.5   0.50031969 -0.00040084229    9988.6267    11256.442    21245.069    339460.92 
   37800          189   0.50625142 0.0038659418    9937.0146    11389.898    21326.912    338792.89 
   37900        189.5   0.49922685 0.00059373359    10050.517    11231.855    21282.372    338126.96 
   38000          190   0.49714807 0.00096073449     10104.21    11185.086    21289.296    337462.71 
   38100        190.5   0.50272733 0.0044918936    10143.128    11310.611    21453.739    336800.89 
   38200          191   0.50488536 0.0049959954    10165.618    11359.163    21524.782    336141.74 
   38300        191.5   0.50428459 0.0025278493    10217.929    11345.647    21563.576    335484.89 
   38400          192   0.50689306 0.0039335777     10158.69    11404.334    21563.024    334830.19 
   38500        192.5   0.50576959 0.0038394202     10093.14    11379.057    21472.197    334177.07 
   38600          193   0.50060514 -0.00090597398    10068.944    11262.865    21331.809    333526.13 
   38700        193.5   0.50162783 0.0072803547    10085.674    11285.874    21371.547    332876.19 
   38800          194   0.50011034 -0.0023282873    10127.432    11251.732    21379.164    332229.52 
   38900        194.5   0.50154716 0.0054233996    10172.753    11284.059    21456.812    331584.26 
   39000          195   0.50813265 -0.0023541569    10198.194    11432.222    21630.416    330941.29 
   39100        195.5   0.50622995 0.0011509932    10101.802    11389.415    21491.216    330299.89 
   39200          196   0.50509108  0.006394828    10189.446    11363.792    21553.238    329660.47 
   39300        196.5   0.50282827 -0.0034305101    10080.594    11312.882    21393.476    329023.62 
   39400          197   0.50498543 0.0061943474    9989.5645    11361.415    21350.979    328387.96 
   39500        197.5   0.50087215 -0.00057012274    9997.6264    11268.872    21266.498    327754.98 
   39600          198   0.49616539 0.0051323668    10174.781    11162.977    21337.758    327124.05 
   39700        198.5   0.49849433 0.0023781392    10008.612    11215.375    21223.987     326495.5 
   39800          199   0.49510964 0.0050796973    10028.496    11139.224     21167.72     325869.3 
   39900        199.5   0.49872221 -0.00011028639    10058.238    11220.502    21278.739     325245.5 
   40000          200   0.49900403 0.0013186539    10117.565    11226.842    21344.407    324623.43 
   40100        200.5   0.49394711 0.0052727285    10031.692    11113.069    21144.761    324003.55 
   40200          201   0.49950981 0.0001355886     9959.748    11238.221    21197.969    323385.38 
   40300        201.5   0.49894225 0.0025707721    10148.228    11225.452     21373.68    322768.48 
   40400          202   0.50286094 0.0021453365    10163.092    11313.617    21476.709    322153.67 
   40500        202.5   0.50223174 -0.0011208592    10227.256    11299.461    21526.716     321540.6 
   40600          203   0.50320449 0.0062267974    10194.322    11321.346    21515.668    320929.09 
   40700        203.5   0.50056835 0.0011571908    10085.387    11262.037    21347.424    320319.82 
   40800          204   0.50007023   0.00101072    10172.404     11250.83    21423.234    319712.58 
   40900        204.5   0.49644927 0.0035150664    10088.489    11169.364    21257.853    319107.12 
   41000          205   0.49881734 -0.0023053513    10251.989    11222.642    21474.631    318503.62 
   41100        205.5   0.50349314 0.0061621686    10193.212    11327.841    21521.052     317901.7 
   41200          206   0.50521524 -0.0012887607    10099.909    11366.585    21466.494    317302.14 
   41300        206.5   0.50451752 0.0080972578    10061.043    11350.887    21411.931    316703.77 
   41400          207   0.49851878 0.0015983773    10028.897    11215.925    21244.822    316108.59 
   41500        207.5   0.49704254 0.0021761963     10040.21    11182.712    21222.922    315514.74 
   41600          208   0.50095835 0.0018221746    10011.297    11270.811    21282.108     314922.6 
   41700        208.5   0.49957646 0.0031777056    10103.076    11239.721    21342.797    314332.56 
   41800          209   0.50318994 0.0031571605    10066.457    11321.019    21387.476    313744.57 
   41900        209.5   0.50461859 0.0003422213    10070.805    11353.161    21423.966    313158.42 
   42000          210   0.50140952 0.0021121044    10106.952    11280.962    21387.914     312573.3 
   42100        210.5   0.49728819 0.0038407064    9944.0306    11188.238    21132.269    311990.21 
   42200          211   0.49655105 0.0022268539     10073.96    11171.654    21245.614    311409.03 
   42300        211.5   0.50158079 0.00068620866    10092.634    11284.815     21377.45    310829.96 
   42400          212   0.50353695  0.005898935    10021.074    11328.826      21349.9    310251.84 
   42500        212.5   0.50214005 -0.00016517611    10098.084    11297.398    21395.482    309675.89 
   42600          213   0.50383427 0.0065134371    10121.928    11335.515    21457.444    309101.21 
   42700        213.5   0.50485556 0.00044431498    10113.439    11358.493    21471.932    308528.89 
   42800          214   0.49804429 0.0044835632    10107.235     11205.25    21312.484    307957.98 
   42900        214.5   0.49604173 -0.0015776211    10095.113    11160.195    21255.308     307389.1 
   43000          215   0.50301854 0.0042415971    10110.819    11317.163    21427.981    306821.42 
   43100        215.5   0.51067803 0.0015259868    10041.989     11489.49    21531.478    306255.76 
   43200          216    0.4992838 0.0053902163    10155.585    11233.137    21388.721    305691.94 
   43300        216.5   0.50016987 0.00038587787     10154.54    11253.072    21407.612    305130.37 
   43400          217   0.49853309 -0.00098571987     10136.72    11216.247    21352.967    304570.37 
   43500        217.5   0.49851176 0.0075418885    10079.143    11215.767     21294.91     304011.3 
   43600          218   0.49764121  0.002546177    10109.517    11196.181    21305.698    303454.85 
   43700        218.5   0.49974745 0.0039039568    10019.068    11243.568    21262.636    302900.21 
   43800          219   0.49923856 0.0027966258    10008.537    11232.119    21240.655    302347.27 
   43900        219.5   0.49440289 8.112398e-05    10129.259    11123.324    21252.583    301795.51 
   44000          220   0.50172805 0.0072285291     10025.46    11288.129    21313.589    301245.02 
   44100        220.5   0.49722331 0.00092377892    10046.104    11186.779    21232.883    300696.69 
   44200          221   0.49836057 0.00072219513     10045.91    11212.365    21258.275    300149.88 
   44300        221.5   0.49673816 0.0074379456    10051.344    11175.863    21227.208    299604.36 
   44400          222   0.49721874 -0.0038911643    10084.244    11186.676     21270.92    299060.94 
   44500        222.5   0.49670908 0.0077369922    10092.842    11175.209    21268.051    298518.36 
   44600          223   0.49550909 -0.0023571278    10161.926    11148.211    21310.137    297978.32 
   44700        223.5   0.49991782  0.006988008    10062.196    11247.401    21309.597    297439.22 
   44800          224   0.49912205 -0.0023384458    10043.551    11229.497    21273.048    296902.01 
   44900        224.5   0.50291585 0.0053050657    10173.031    11314.852    21487.883    296366.01 
   45000          225    0.4944518 -0.00075653714     10171.97    11124.424    21296.393    295832.17 
   45100        225.5   0.49541772  0.002042705     9999.536    11146.155    21145.691    295299.68 
   45200          226    0.4940149 0.0036670258    9924.5871    11114.594    21039.181    294768.65 
   45300        226.5    0.4984459 0.0047408199    9959.1522    11214.285    21173.437    294239.64 
   45400          227   0.49825603 0.0031257367     10000.36    11210.013    21210.373    293711.88 
   45500        227.5   0.49910768 -0.0028881211    10051.154    11229.174    21280.329     293185.8 
   45600          228   0.50428672 0.0079917113     10129.64    11345.695    21475.335    292659.94 
   45700        228.5   0.49991577 -0.0017701738    10102.474    11247.355    21349.829     292136.9 
   45800          229   0.50102674 0.0057051326    10090.921     11272.35    21363.271     291614.7 
   45900        229.5   0.49678938 0.00021652192    10152.184    11177.016      21329.2    291094.49 
   46000          230   0.49917905 0.0036537566    10055.501     11230.78    21286.281    290575.66 
   46100        230.5   0.49824707 0.00088485892    10102.847    11209.812    21312.659     290058.5 
   46200          231   0.49876106 0.0037206127    10024.273    11221.376    21245.648    289542.92 
   46300        231.5   0.49971345 0.0055597314     10083.48    11242.803    21326.283    289028.61 
   46400          232    0.4990736 -0.0019013215    10059.562    11228.407     21287.97    288516.36 
   46500        232.5   0.50376692 0.0075728982     10176.85        11334     21510.85    288005.01 
   46600          233   0.50232077 0.0012810349    10036.671    11301.464    21338.135     287495.8 
   46700        233.5   0.49295683 0.0058281831     10035.99    11090.789    21126.779    286988.16 
   46800          234   0.49543283  0.001423694    10083.459    11146.495    21229.955    286482.63 
   46900        234.5   0.50157354 0.0011693992    10019.735    11284.652    21304.387    285977.81 
   47000          235   0.50038582 0.0070684188    10076.891     11257.93    21334.821    285473.93 
   47100        235.5   0.50178325 0.0018131287    10078.961     11289.37    21368.331    284972.25 
   47200          236   0.50101917 0.0027618561     10145.92     11272.18      21418.1    284472.38 
   47300        236.5   0.49905049 0.0049971223     10051.49    11227.888    21279.377    283973.68 
   47400          237   0.50445049 0.0012106742    9981.4303    11349.379     21330.81    283476.32 
   47500        237.5   0.50072768 0.0024974674    10161.316    11265.622    21426.938    282980.13 
   47600          238   0.50272165 0.00086512575    10105.108    11310.483    21415.591    282485.06 
   47700        238.5   0.50356285 0.0053158705    10239.881    11329.409     21569.29    281991.19 
   47800          239   0.50427702 0.0014373584    10168.303    11345.477     21513.78    281499.46 
   47900        239.5   0.50216599 0.0026965281    10199.226    11297.981    21497.208    281008.89 
   48000          240   0.50139781 0.0024080246    10176.905    11280.699    21457.604    280519.84 
   48100        240.5   0.49994611 0.0059941095    10116.721    11248.038    21364.759    280031.68 
   48200          241   0.49643181 -0.0014251875    10053.001    11168.971    21221.972     279545.3 
   48300        241.5   0.50011848 0.0074723028    9938.8383    11251.916    21190.754    279059.95 
   48400          242   0.50100859 -0.00073260722    10111.832    11271.942    21383.774    278576.85 
   48500        242.5   0.49740293 0.0063872606    9986.2789     11190.82    21177.099    278095.15 
   48600          243   0.50146486  0.001206579      10017.6    11282.207    21299.807    277615.01 
   48700        243.5   0.49880224 0.0036492839    10022.983    11222.302    21245.286     277135.7 
   48800          244   0.49867564 0.0029744587    10049.692    11219.454    21269.146    276657.24 
   48900        244.5   0.50249287 0.0034400171    9988.2021    11305.336    21293.538    276180.81 
   49000          245   0.50158138 0.0033839193    10083.742    11284.829     21368.57    275705.75 
   49100        245.5   0.49877833 0.0022608225    10121.734    11221.764    21343.498    275231.99 
   49200          246   0.50202916 0.0023455083    10140.489    11294.903    21435.392    274759.66 
   49300        246.5   0.50360225 0.0053338847    10096.796    11330.295    21427.091    274288.61 
   49400          247   0.50265077 0.0028055945    10133.831    11308.888     21442.72    273818.88 
   49500        247.5   0.50316099 0.0049186532    10097.092    11320.368    21417.459    273349.79 
   49600          248   0.49604918 -0.00068519613    10073.257    11160.362    21233.619    272882.32 
   49700        248.5   0.49659453 0.0028930886    10039.441    11172.632    21212.073    272415.62 
   49800          249   0.50050355 -0.00010767109    10022.705    11260.579    21283.284    271950.25 
   49900        249.5    0.4968255 0.0032323895    10074.257    11177.828    21252.085    271485.89 
   50000          250   0.49758638  0.005289548    10118.968    11194.947    21313.915    271022.94 
Loop time of 185.326 on 1 procs for 50000 steps with 15000 atoms

Performance: 116551.523 tau/day, 269.795 timesteps/s
96.2% CPU use with 1 MPI tasks x 1 OpenMP threads

MPI task timing breakdown:
Section |  min time  |  avg time  |  max time  |%varavg| %total
---------------------------------------------------------------
Pair    | 6.2963     | 6.2963     | 6.2963     |   0.0 |  3.40
Bond    | 66.111     | 66.111     | 66.111     |   0.0 | 35.67
Neigh   | 25.627     | 25.627     | 25.627     |   0.0 | 13.83
Comm    | 2.2178     | 2.2178     | 2.2178     |   0.0 |  1.20
Output  | 30.016     | 30.016     | 30.016     |   0.0 | 16.20
Modify  | 53.576     | 53.576     | 53.576     |   0.0 | 28.91
Other   |            | 1.482      |            |       |  0.80

Nlocal:    15000 ave 15000 max 15000 min
Histogram: 1 0 0 0 0 0 0 0 0 0
Nghost:    1794 ave 1794 max 1794 min
Histogram: 1 0 0 0 0 0 0 0 0 0
Neighs:    1153 ave 1153 max 1153 min
Histogram: 1 0 0 0 0 0 0 0 0 0

Total # of neighbors = 1153
Ave neighs/atom = 0.0768667
Ave special neighs/atom = 5.2
Neighbor list builds = 4640
Dangerous builds = 1772

unfix 2
unfix 3
fix 4 all nve
fix 5 all langevin ${T} ${T} 1 123456
fix 5 all langevin 0.5 ${T} 1 123456
fix 5 all langevin 0.5 0.5 1 123456
fix recen1 all recenter INIT INIT INIT


# RUN
run ${run_steps}
run 50000
Per MPI rank memory allocation (min/avg/max) = 29.07 | 29.07 | 29.07 Mbytes
Step Time Temp Press PotEng KinEng TotEng Volume 
   50000          250   0.49758638  0.005289548    10118.968    11194.947    21313.915    271022.94 
   50100        250.5   0.49643534 0.0004883366    10103.627    11169.051    21272.677    271022.94 
   50200          251    0.4988729 0.0039710567    10082.497    11223.892    21306.389    271022.94 
   50300        251.5   0.50233345  0.005897091    10052.716    11301.749    21354.465    271022.94 
   50400          252    0.4999067 -0.0017131369    10076.751    11247.151    21323.902    271022.94 
   50500        252.5   0.49922065 0.0059052923    10034.354    11231.716     21266.07    271022.94 
   50600          253   0.50229031 0.0066004604    10105.684    11300.779    21406.462    271022.94 
   50700        253.5   0.50286184 0.0034593149    10080.987    11313.637    21394.624    271022.94 
   50800          254   0.49703199  0.001872438    10076.165    11182.474     21258.64    271022.94 
   50900        254.5   0.49690474  0.002656418    10024.171    11179.611    21203.782    271022.94 
   51000          255    0.5023052 0.0066403612    10029.824    11301.114    21330.937    271022.94 
   51100        255.5   0.50008847 -0.0048465682    10140.006     11251.24    21391.246    271022.94 
   51200          256   0.50331738 0.0099700861    10084.821    11323.886    21408.707    271022.94 
   51300        256.5   0.50423919 0.0011109493    10053.673    11344.625    21398.299    271022.94 
   51400          257   0.49909639 0.00071458889    10129.512     11228.92    21358.433    271022.94 
   51500        257.5   0.50798165 0.0056436009    10113.639    11428.825    21542.464    271022.94 
   51600          258   0.49983496 0.0010307243    10263.612    11245.537    21509.149    271022.94 
   51700        258.5   0.50215092 0.0043310294    10150.946    11297.643    21448.589    271022.94 
   51800          259   0.49859984 0.0038835996    10127.983    11217.749    21345.732    271022.94 
   51900        259.5    0.4943506 0.0018098784     10100.12    11122.147    21222.267    271022.94 
   52000          260   0.50050907  0.003119376    10034.391    11260.703    21295.094    271022.94 
   52100        260.5    0.4987739 0.0060297182    10154.835    11221.665    21376.499    271022.94 
   52200          261   0.50134173 0.0017708667     10098.75    11279.437    21378.187    271022.94 
   52300        261.5   0.49473339 0.0060888638    10082.681    11130.759     21213.44    271022.94 
   52400          262   0.49866505 -0.0019014131    9936.1775    11219.216    21155.393    271022.94 
   52500        262.5   0.49823484 0.0071693851    9994.4316    11209.536    21203.968    271022.94 
   52600          263   0.49875395 -0.0036359633    9907.3687    11221.216    21128.585    271022.94 
   52700        263.5    0.4877998 0.0066989084    9989.0781    10974.764    20963.842    271022.94 
   52800          264   0.49190408 0.0016973246    9967.4121    11067.104    21034.516    271022.94 
   52900        264.5     0.494048 0.0035776523    10066.428    11115.339    21181.767    271022.94 
   53000          265   0.49635388 0.0025249484    10136.379    11167.218    21303.596    271022.94 
   53100        265.5   0.49995927 0.00068172061    10043.651    11248.334    21291.985    271022.94 
   53200          266   0.49833983 0.0040772277    10017.273    11211.899    21229.172    271022.94 
   53300        266.5   0.49587084 0.0022411598    10026.229     11156.35    21182.579    271022.94 
   53400          267   0.49783294 0.0035415238    9992.8646    11200.494    21193.359    271022.94 
   53500        267.5   0.49798566 0.0062522592    10141.779     11203.93    21345.709    271022.94 
   53600          268   0.49682064 -0.0040032765    10102.165    11177.719    21279.884    271022.94 
   53700        268.5   0.50158741 0.0064550581    10119.565    11284.964    21404.529    271022.94 
   53800          269   0.50222206 -0.00015843633    9991.7152    11299.243    21290.958    271022.94 
   53900        269.5    0.4998063 0.0056053909    9998.7781    11244.892     21243.67    271022.94 
   54000          270   0.50025557 0.0036730305    10119.593        11255    21374.593    271022.94 
   54100        270.5   0.50140322 0.0028700857    10162.918     11280.82    21443.738    271022.94 
   54200          271    0.5011207 0.0033734808    10154.107    11274.464    21428.571    271022.94 
   54300        271.5   0.50098598 0.0024403862    10143.818    11271.433    21415.251    271022.94 
   54400          272   0.50496812 0.0020825922    10108.431    11361.025    21469.456    271022.94 
   54500        272.5   0.50352257 0.0079838789    10127.054    11328.503    21455.557    271022.94 
   54600          273   0.50636365  0.002920587    10115.498    11392.423     21507.92    271022.94 
   54700        273.5   0.50454755 0.0040451545    10121.735    11351.563    21473.299    271022.94 
   54800          274   0.50112614 0.0066687958     10061.06    11274.586    21335.647    271022.94 
   54900        274.5    0.5023136 -0.00093542369     10077.34    11301.303    21378.643    271022.94 
   55000          275   0.50161731 0.0061258609    10088.472    11285.637    21374.109    271022.94 
   55100        275.5   0.50177132 0.0015251458    10086.181    11289.102    21375.283    271022.94 
   55200          276    0.5042119 0.0024973152    10065.425    11344.011    21409.436    271022.94 
   55300        276.5   0.50036075 0.0003714163    10215.407    11257.366    21472.773    271022.94 
   55400          277    0.4969286 0.0035936306    10117.235    11180.148    21297.383    271022.94 
   55500        277.5   0.50036056 0.00082679938    10009.371    11257.362    21266.733    271022.94 
   55600          278   0.49546228 0.0020200115    10081.794    11147.158    21228.952    271022.94 
   55700        278.5   0.49693319 0.0029728642    10043.877    11180.251    21224.128    271022.94 
   55800          279   0.50474287 0.00019393952    10142.831    11355.957    21498.788    271022.94 
   55900        279.5   0.50707424 0.0074947712    10111.003     11408.41    21519.412    271022.94 
   56000          280   0.49938147 -0.0025174395    10082.121    11235.334    21317.455    271022.94 
   56100        280.5   0.49542764  0.012204221     10103.31    11146.379    21249.689    271022.94 
   56200          281    0.4987522 -0.0047821581    10068.005    11221.176    21289.182    271022.94 
   56300        281.5   0.50296936 0.0053236624    9962.9435    11316.056        21279    271022.94 
   56400          282       0.5002  0.001489877    10086.639     11253.75    21340.389    271022.94 
   56500        282.5   0.50172861 0.0031274974      10131.8    11288.141    21419.941    271022.94 
   56600          283   0.50580435 0.0087589477    10168.527    11379.839    21548.366    271022.94 
   56700        283.5   0.50437514 -0.0020252968    10134.489    11347.684    21482.173    271022.94 
   56800          284   0.49403918 0.0054233317    10148.437    11115.141    21263.578    271022.94 
   56900        284.5   0.49527236 -0.00095995231    10134.588    11142.885    21277.473    271022.94 
   57000          285   0.49820583 0.0096789263    10132.122    11208.884    21341.005    271022.94 
   57100        285.5   0.50043049 -0.0019520359    9994.7995    11258.935    21253.735    271022.94 
   57200          286   0.50011858 0.0023887475    10097.104    11251.918    21349.022    271022.94 
   57300        286.5   0.50362866 0.0046952464    10107.042    11330.889    21437.931    271022.94 
   57400          287   0.49870289 0.0018910658    10141.396    11220.067    21361.463    271022.94 
   57500        287.5   0.50123757 0.0033800516    9954.5112    11277.093    21231.605    271022.94 
   57600          288    0.5011452  0.003281564    10042.538    11275.015    21317.554    271022.94 
   57700        288.5    0.5028519 -0.00078956141    9987.6658    11313.413    21301.079    271022.94 
   57800          289   0.50160412 0.0054188816    10070.581     11285.34    21355.922    271022.94 
   57900        289.5   0.49889412 -0.00084383702    10096.734    11224.369    21321.103    271022.94 
   58000          290   0.50055853 0.0082742667    10081.284    11261.816      21343.1    271022.94 
   58100        290.5   0.49827279 0.0012557562    10129.303     11210.39    21339.693    271022.94 
   58200          291   0.50143578 0.0040662094    10011.541    11281.553    21293.094    271022.94 
   58300        291.5   0.50381289 -0.0016618516    10127.222    11335.034    21462.256    271022.94 
   58400          292   0.50150931 0.00014097066    10130.012    11283.207    21413.219    271022.94 
   58500        292.5    0.5014571 0.0081281918    10169.927    11282.033    21451.959    271022.94 
   58600          293   0.50072288 -0.0024651433    10131.968    11265.514    21397.482    271022.94 
   58700        293.5   0.50128473 0.0088145156    10054.127    11278.155    21332.282    271022.94 
   58800          294   0.49694754 -0.00051625449     10128.06    11180.574    21308.634    271022.94 
   58900        294.5   0.49815966 0.0037241825    10079.284    11207.845    21287.129    271022.94 
   59000          295   0.50190986 0.0016417228    10102.884    11292.219    21395.103    271022.94 
   59100        295.5    0.5054895 0.0087000157    10025.257    11372.756    21398.012    271022.94 
   59200          296   0.50241664 -0.0010545358    10069.553    11303.621    21373.174    271022.94 
   59300        296.5   0.50372894 0.0067558438    10111.497    11333.146    21444.642    271022.94 
   59400          297   0.50048541 -0.00035101738    10213.574    11260.171    21473.745    271022.94 
   59500        297.5   0.50092882 0.0040618806    9998.4571    11270.147    21268.604    271022.94 
   59600          298   0.49949641 -0.0004557486    10071.013     11237.92    21308.933    271022.94 
   59700        298.5   0.49974055 0.0062205815    10015.175    11243.413    21258.587    271022.94 
   59800          299   0.50479032 0.00078319399    9928.8663    11357.025    21285.891    271022.94 
   59900        299.5   0.49362318 0.00072965859    10195.622    11105.781    21301.403    271022.94 
   60000          300   0.49304794 0.0053422811    10160.651    11092.839     21253.49    271022.94 
   60100        300.5    0.5014957 -0.00081915671    10103.664    11282.901    21386.565    271022.94 
   60200          301   0.49713214  0.001970544    10179.423    11184.728     21364.15    271022.94 
   60300        301.5   0.49883273 0.0037296709    10107.639    11222.988    21330.627    271022.94 
   60400          302   0.49782775 0.0019383855    10093.374    11200.378    21293.751    271022.94 
   60500        302.5   0.49786725 0.0023553458    10113.757    11201.266    21315.023    271022.94 
   60600          303   0.50622194 0.0071089552    10029.345    11389.234     21418.58    271022.94 
   60700        303.5   0.49483501 0.00078640139    10099.898    11133.046    21232.944    271022.94 
   60800          304   0.49913506 0.0059547411    9957.5145     11229.79    21187.305    271022.94 
   60900        304.5   0.49695969 0.0023773115    10095.201    11180.848    21276.049    271022.94 
   61000          305   0.50349428  0.001204865    10010.806    11327.866    21338.672    271022.94 
   61100        305.5    0.5028907 0.0025068852    10033.882    11314.286    21348.168    271022.94 
   61200          306   0.50108189 0.0021235167    10098.548    11273.591    21372.139    271022.94 
   61300        306.5   0.49743988 0.0053959456    10082.363    11191.651    21274.014    271022.94 
   61400          307   0.50456516 0.0041428183     10034.74    11351.959    21386.699    271022.94 
   61500        307.5   0.49773813 0.0015927913    10197.994    11198.361    21396.355    271022.94 
   61600          308   0.50375679 0.0076690565    10207.672    11333.772    21541.444    271022.94 
   61700        308.5    0.5053016 0.00047767412    10227.986    11368.528    21596.513    271022.94 
   61800          309   0.49415886 0.00023701763      10054.8    11117.833    21172.633    271022.94 
   61900        309.5   0.49481898 0.00030977243    10087.324    11132.685    21220.009    271022.94 
   62000          310    0.5024249 0.0081095992     9958.791    11303.807    21262.598    271022.94 
   62100        310.5   0.50057382 0.0027789789    10103.646     11262.16    21365.806    271022.94 
   62200          311   0.50068931 0.0018252963    10003.806    11264.758    21268.565    271022.94 
   62300        311.5   0.50145228 -0.00020510676    10080.262    11281.924    21362.186    271022.94 
   62400          312   0.50030008 0.0093397558     10243.92    11256.001    21499.921    271022.94 
   62500        312.5   0.49863002 -0.003843244    10116.635    11218.428    21335.063    271022.94 
   62600          313   0.50087751 0.0081617244     10043.66    11268.993    21312.653    271022.94 
   62700        313.5   0.49654477 -0.00065657072    10047.475    11171.513    21218.987    271022.94 
   62800          314   0.49500171 0.0065193659    10077.549    11136.796    21214.345    271022.94 
   62900        314.5   0.49228584 0.00096968653     10122.26    11075.693    21197.953    271022.94 
   63000          315   0.49576523 0.0058790969    10139.603    11153.974    21293.577    271022.94 
   63100        315.5   0.49968981 0.0037868624    10060.175    11242.271    21302.446    271022.94 
   63200          316   0.49654275 -0.0010316215    10137.301    11171.467    21308.768    271022.94 
   63300        316.5   0.49863953 0.0070069126    9956.2892    11218.641    21174.931    271022.94 
   63400          317   0.49580663 0.0035349647    10085.895    11154.906      21240.8    271022.94 
   63500        317.5   0.49449403 -0.0028755415    10125.652    11125.374    21251.026    271022.94 
   63600          318   0.49669068 0.0079471033    10009.248    11174.795    21184.044    271022.94 
   63700        318.5   0.49526687 0.0029588353    9990.1893    11142.762    21132.951    271022.94 
   63800          319   0.49915732 0.0028860665    9984.8167    11230.291    21215.108    271022.94 
   63900        319.5    0.4988266 0.0026934453    10009.254     11222.85    21232.104    271022.94 
   64000          320   0.49920272 0.00084100512    9998.8044    11231.312    21230.117    271022.94 
   64100        320.5    0.4985445 0.0043836964    10172.831    11216.503    21389.335    271022.94 
   64200          321   0.50412555 0.0027089918    10064.101    11342.069    21406.169    271022.94 
   64300        321.5   0.50023908 0.0034776642    10187.985    11254.629    21442.614    271022.94 
   64400          322    0.5017004 0.0088404019    10023.091    11287.506    21310.598    271022.94 
   64500        322.5   0.50068297 -0.00021968116    10117.433    11264.616    21382.049    271022.94 
   64600          323   0.50234039 0.0029478725    10056.768    11301.905    21358.673    271022.94 
   64700        323.5   0.49586973 0.0043319273    10054.027    11156.325    21210.352    271022.94 
   64800          324   0.49814705 -0.00028544037     9888.923    11207.562    21096.485    271022.94 
   64900        324.5   0.49836465 0.0045753639    9999.4038    11212.457    21211.861    271022.94 
   65000          325   0.49805324 -4.6012542e-05    10078.151    11205.451    21283.602    271022.94 
   65100        325.5   0.50024293 0.0060910079    9998.3726    11254.715    21253.088    271022.94 
   65200          326   0.49795016 -0.0025607394    9955.5357    11203.132    21158.667    271022.94 
   65300        326.5   0.49926767 0.0075628991    10040.327    11232.774    21273.101    271022.94 
   65400          327    0.4999825 -0.004383642    10046.004    11248.856     21294.86    271022.94 
   65500        327.5   0.49914846 0.0089164514     10009.87    11230.092    21239.962    271022.94 
   65600          328   0.49403458 0.0024036583    10089.351    11115.037    21204.388    271022.94 
   65700        328.5   0.49532575 0.00013939955    10010.636    11144.086    21154.722    271022.94 
   65800          329    0.4962537 0.0049776452    10040.373    11164.964    21205.337    271022.94 
   65900        329.5   0.49528628 -0.00070543406     10071.18    11143.198    21214.378    271022.94 
   66000          330   0.49944696 0.0064848715      10073.2    11236.807    21310.008    271022.94 
   66100        330.5   0.50130797 -0.00060475332    10018.354    11278.677    21297.032    271022.94 
   66200          331   0.49694893 0.0045161844    10111.049    11180.605    21291.654    271022.94 
   66300        331.5   0.50029704 0.0019990886    10187.598    11255.933    21443.531    271022.94 
   66400          332   0.50209425 0.0041554555    10042.087    11296.368    21338.455    271022.94 
   66500        332.5   0.50547321 0.00079796631    9997.3148    11372.389    21369.704    271022.94 
   66600          333   0.50089457 0.0052972993    10149.701    11269.377    21419.077    271022.94 
   66700        333.5   0.50460471 -3.5871287e-06    10052.878    11352.849    21405.727    271022.94 
   66800          334   0.50592004 0.0061339513    10130.623    11382.442    21513.065    271022.94 
   66900        334.5   0.49949563 0.0007512876    10136.968    11237.902    21374.871    271022.94 
   67000          335   0.49973158 -2.9470975e-05     10217.66    11243.211    21460.871    271022.94 
   67100        335.5   0.50237762 0.0065991767     10057.26    11302.743    21360.003    271022.94 
   67200          336   0.50259116 -0.00046099345    10017.691    11307.547    21325.238    271022.94 
   67300        336.5   0.49671014 0.0015581302    10093.631    11175.233    21268.864    271022.94 
   67400          337   0.49907164 0.0027124812    10107.676    11228.363    21336.039    271022.94 
   67500        337.5   0.49689867 0.0022371478    10060.587    11179.475    21240.062    271022.94 
   67600          338   0.50013923 0.0061930207     10010.31    11252.383    21262.693    271022.94 
   67700        338.5   0.50496023 0.0011396553    10033.693    11360.848     21394.54    271022.94 
   67800          339   0.50165101 0.0042464682    9998.7925    11286.395    21285.188    271022.94 
   67900        339.5   0.49400578 0.0018380143    10033.865    11114.389    21148.254    271022.94 
   68000          340   0.49777534 0.0031051485    10109.465    11199.198    21308.664    271022.94 
   68100        340.5   0.50614926  0.002649529     10021.24    11387.599    21408.839    271022.94 
   68200          341   0.50336206 0.0021517689    10057.197    11324.891    21382.088    271022.94 
   68300        341.5   0.49838378 0.0031790802    10157.819    11212.887    21370.706    271022.94 
   68400          342   0.49970112 0.0025424887    10131.176    11242.526    21373.702    271022.94 
   68500        342.5    0.5023337 -0.00020114256    10146.113    11301.755    21447.868    271022.94 
   68600          343   0.49959979 0.0053782299    10097.307    11240.246    21337.553    271022.94 
   68700        343.5   0.49441224 -0.0012378114    10125.141    11123.534    21248.675    271022.94 
   68800          344   0.49996191 0.0066102782    10009.317    11248.393     21257.71    271022.94 
   68900        344.5   0.50044935 5.3496297e-05    10007.876     11259.36    21267.236    271022.94 
   69000          345   0.50150327 0.0033942245    10087.322    11283.071    21370.393    271022.94 
   69100        345.5   0.50111348 0.0028339274    10059.888    11274.302     21334.19    271022.94 
   69200          346   0.49740864 0.0048674207    10086.378    11190.948    21277.326    271022.94 
   69300        346.5   0.49669893 0.0021178446    10130.705    11174.981    21305.686    271022.94 
   69400          347   0.49744485 -0.00039499535    10103.179    11191.763    21294.942    271022.94 
   69500        347.5   0.50058201 0.0065137651    10094.201    11262.344    21356.546    271022.94 
   69600          348   0.49898047 -0.00080221815    10078.657    11226.312    21304.969    271022.94 
   69700        348.5   0.49907082 0.0065299784    10017.745    11228.345     21246.09    271022.94 
   69800          349   0.49948366 -0.0026183038    10057.654    11237.633    21295.287    271022.94 
   69900        349.5     0.503703 0.0076007324    10146.845    11332.562    21479.407    271022.94 
   70000          350    0.5086323 0.00016725316    9986.0956    11443.464    21429.559    271022.94 
   70100        350.5   0.50088154 0.0060626698    10057.713    11269.083    21326.797    271022.94 
   70200          351   0.49940942 -0.0010213553    9967.5931    11235.963    21203.556    271022.94 
   70300        351.5   0.49666496 0.0092384346    10072.968    11174.217    21247.184    271022.94 
   70400          352   0.49330304 -0.00035698337    10128.699    11098.578    21227.277    271022.94 
   70500        352.5   0.50057534 0.0035366054    10083.173    11262.194    21345.367    271022.94 
   70600          353   0.50217644 -0.00098013752     10080.78    11298.217    21378.997    271022.94 
   70700        353.5   0.50066161 0.0067644786    10150.191    11264.135    21414.326    271022.94 
   70800          354   0.49969073 -0.0038177574     10171.26    11242.292    21413.552    271022.94 
   70900        354.5   0.50212393 0.0059583799     10207.51    11297.035    21504.546    271022.94 
   71000          355   0.50461529 0.0030452338    10091.298    11353.087    21444.385    271022.94 
   71100        355.5   0.50675598  0.003898618    10016.658    11401.249    21417.908    271022.94 
   71200          356    0.5019886 0.0037895046    9986.4157     11293.99    21280.406    271022.94 
   71300        356.5   0.50345554 -0.0010586948    10130.397    11326.994    21457.391    271022.94 
   71400          357   0.50412432 0.0026950817    10136.565    11342.041    21478.606    271022.94 
   71500        357.5   0.50124545 0.0014898878    10047.525    11277.271    21324.795    271022.94 
   71600          358   0.50140513 0.0017402081    9980.7884    11280.863    21261.652    271022.94 
   71700        358.5   0.49968997 0.0047661696    10072.203    11242.275    21314.478    271022.94 
   71800          359   0.50284805 0.00038389567     10073.33    11313.327    21386.657    271022.94 
   71900        359.5   0.49922182 0.0035303097    10133.878    11231.742     21365.62    271022.94 
   72000          360   0.50638056 0.0061905085    10077.726    11392.803    21470.529    271022.94 
   72100        360.5   0.50534241 -0.00076481788    10118.304    11369.446     21487.75    271022.94 
   72200          361   0.50946853 0.0079632838    10039.101    11462.278    21501.379    271022.94 
   72300        361.5    0.5040553 -0.0019822324    10191.622    11340.488     21532.11    271022.94 
   72400          362   0.50638203 0.0058732966    10111.478    11392.836    21504.314    271022.94 
   72500        362.5   0.50366132 0.0053951141    10029.158    11331.624    21360.783    271022.94 
   72600          363   0.49534352 -0.00045721841    10101.118    11144.486    21245.604    271022.94 
   72700        363.5   0.49741837 0.0028315535    10126.462    11191.167    21317.629    271022.94 
   72800          364    0.4973986 0.0051626105    9997.3635    11190.722    21188.086    271022.94 
   72900        364.5   0.49665345 -7.795082e-05    10028.824    11173.958    21202.781    271022.94 
   73000          365   0.49682447 0.0061963407    9986.5399    11177.805    21164.345    271022.94 
   73100        365.5   0.50326622 0.0030468595    9862.7937    11322.735    21185.529    271022.94 
   73200          366    0.4995281 0.0018751003    10105.037    11238.633     21343.67    271022.94 
   73300        366.5   0.49973218 0.0039442619    9919.6974    11243.224    21162.922    271022.94 
   73400          367   0.49676667 0.0052272341    10062.862    11176.505    21239.367    271022.94 
   73500        367.5   0.49543898 -0.0023524419    10082.558    11146.634    21229.192    271022.94 
   73600          368   0.49494303 0.0035454404    10147.016    11135.476    21282.492    271022.94 
   73700        368.5   0.49673737 0.0078410089    10053.682    11175.846    21229.528    271022.94 
   73800          369   0.50173022 -0.0058634962    10039.815    11288.177    21327.992    271022.94 
   73900        369.5   0.49750135 0.0078627213    10237.528    11193.034    21430.563    271022.94 
   74000          370   0.50477207 -0.00040001784    10081.539    11356.614    21438.154    271022.94 
   74100        370.5   0.49700836 0.0044532837    10054.626    11181.943    21236.568    271022.94 
   74200          371   0.49482196 0.0067867892    10060.748    11132.752      21193.5    271022.94 
[...]
  581900        409.5    0.5035155   0.51209578    10682.809    11328.343    22011.152    28281.502 
  582000          410   0.50516496    0.4895041    10805.621    11365.454    22171.075    28281.502 
  582100        410.5   0.50246343   0.50189734     10737.56    11304.674    22042.234    28281.502 
  582200          411   0.49620114   0.45188986    10821.749    11163.781     21985.53    28281.502 
  582300        411.5   0.50002214   0.54186392    10809.226    11249.748    22058.974    28281.502 
  582400          412   0.50456229   0.50928316     10807.57    11351.895    22159.465    28281.502 
  582500        412.5   0.50450505   0.49093976    10804.827    11350.607    22155.434    28281.502 
  582600          413   0.50024641   0.51644125    10707.153    11254.794    21961.946    28281.502 
  582700        413.5   0.49867713   0.47325463    10768.187    11219.487    21987.675    28281.502 
  582800          414   0.49952213   0.48629532    10822.382    11238.499    22060.881    28281.502 
  582900        414.5   0.50083176   0.51957106    10808.661    11267.963    22076.624    28281.502 
  583000          415   0.50046608   0.45858746    10773.092    11259.736    22032.828    28281.502 
  583100        415.5   0.50069538   0.50020709    10830.955    11264.895     22095.85    28281.502 
  583200          416   0.50542161   0.51322707    10779.029    11371.228    22150.257    28281.502 
  583300        416.5   0.50112245   0.52016869    10841.263    11274.504    22115.766    28281.502 
  583400          417   0.50301323   0.47848151     10722.78    11317.043    22039.823    28281.502 
  583500        417.5     0.504605     0.513866    10873.002    11352.856    22225.857    28281.502 
  583600          418   0.49885865    0.4958215     10888.47    11223.571    22112.041    28281.502 
  583700        418.5    0.4991563   0.46888398    10715.253    11230.268    21945.521    28281.502 
  583800          419   0.49977913   0.53406076     10713.02    11244.281    21957.301    28281.502 
  583900        419.5   0.50020532   0.48280914    10731.807    11253.869    21985.677    28281.502 
  584000          420   0.50680312   0.54894059    10773.301     11402.31    22175.611    28281.502 
  584100        420.5    0.4954924   0.49191944    10937.365    11147.836    22085.201    28281.502 
  584200          421   0.50136179   0.49270005    10904.134    11279.888    22184.023    28281.502 
  584300        421.5   0.50802919   0.52812896    10880.276    11429.895     22310.17    28281.502 
  584400          422   0.50180735   0.51569034    10857.808    11289.913    22147.721    28281.502 
  584500        422.5   0.50337762   0.49222522    10771.096    11325.241    22096.337    28281.502 
  584600          423   0.49955513   0.53804349    10792.196    11239.241    22031.437    28281.502 
  584700        423.5     0.499498   0.42848441    10789.978    11237.956    22027.934    28281.502 
  584800          424   0.49970604   0.51037944    10584.232    11242.636    21826.868    28281.502 
  584900        424.5   0.49567616   0.53253017    10763.533     11151.97    21915.503    28281.502 
  585000          425   0.49728871   0.45269786    10733.679     11188.25    21921.929    28281.502 
  585100        425.5   0.50358059   0.47298337     10757.35    11329.808    22087.158    28281.502 
  585200          426    0.5049585   0.47875531    10826.309    11360.809    22187.118    28281.502 
  585300        426.5   0.50289515   0.50335353    10864.919    11314.387    22179.306    28281.502 
  585400          427   0.49526582   0.49564654    10821.621    11142.738    21964.359    28281.502 
  585500        427.5   0.49984668   0.52392175    10750.254      11245.8    21996.055    28281.502 
  585600          428   0.49858628   0.50903177    10699.479    11217.443    21916.923    28281.502 
  585700        428.5   0.50002253   0.44725243    10744.548    11249.757    21994.305    28281.502 
  585800          429   0.49410755   0.56032243    10702.415    11116.679    21819.094    28281.502 
  585900        429.5   0.49823961   0.45225632    10865.332    11209.644    22074.976    28281.502 
  586000          430   0.50174785   0.55906143    10687.614    11288.574    21976.188    28281.502 
  586100        430.5   0.50092738   0.49057666    10598.325    11270.115    21868.439    28281.502 
  586200          431   0.49527442     0.493526    10734.633    11142.932    21877.564    28281.502 
  586300        431.5   0.49767088   0.47523618    10807.583    11196.848    22004.432    28281.502 
  586400          432   0.49766092   0.47768366    10857.981    11196.624    22054.605    28281.502 
  586500        432.5   0.49455754   0.52957777    10876.981    11126.803    22003.783    28281.502 
  586600          433    0.5038777   0.48149002    10729.734    11336.492    22066.227    28281.502 
  586700        433.5   0.50309086   0.47970489    10912.243     11318.79    22231.033    28281.502 
  586800          434   0.49932529   0.52384333    10827.657     11234.07    22061.727    28281.502 
  586900        434.5   0.49967113   0.48091325    10944.688    11241.851    22186.539    28281.502 
  587000          435   0.49571577   0.51324783    10853.013    11152.861    22005.874    28281.502 
  587100        435.5   0.49809241   0.49177501     10848.98    11206.332    22055.312    28281.502 
  587200          436   0.49363683    0.5111013    10768.148    11106.088    21874.236    28281.502 
  587300        436.5   0.49632755   0.47851637    10787.731    11166.625    21954.356    28281.502 
  587400          437   0.49860481   0.49489997     10790.44     11217.86    22008.301    28281.502 
  587500        437.5   0.49828713   0.45098474    10732.047    11210.713     21942.76    28281.502 
  587600          438   0.49999451   0.45380978    10768.269    11249.126    22017.395    28281.502 
  587700        438.5   0.50140514   0.47815129    10734.277    11280.863     22015.14    28281.502 
  587800          439   0.50176914   0.52166323    10798.856    11289.053    22087.909    28281.502 
  587900        439.5   0.49732627   0.48133908    10821.826    11189.095    22010.921    28281.502 
  588000          440   0.49485479   0.45989316    10850.738     11133.49    21984.229    28281.502 
  588100        440.5   0.49817795   0.52764318    10776.662    11208.257    21984.919    28281.502 
  588200          441   0.49873128   0.49729713    10814.176    11220.706    22034.882    28281.502 
  588300        441.5   0.50243187   0.44773638    10775.026    11303.963    22078.989    28281.502 
  588400          442    0.5022947   0.53770649    10855.365    11300.877    22156.243    28281.502 
  588500        442.5   0.49893943   0.43591952    10778.262    11225.389    22003.651    28281.502 
  588600          443   0.49686981   0.52175906    10718.041    11178.825    21896.866    28281.502 
  588700        443.5   0.50269021   0.44906105    10727.705    11309.776    22037.481    28281.502 
  588800          444   0.50078753   0.51377875    10911.823    11266.968    22178.791    28281.502 
  588900        444.5   0.50648804   0.49408381    10916.356    11395.221    22311.578    28281.502 
  589000          445    0.4997309   0.49218336     10959.12    11243.196    22202.316    28281.502 
  589100        445.5   0.50030207   0.52246329    10774.515    11256.046    22030.561    28281.502 
  589200          446   0.50204889   0.48465825    10760.543    11295.347     22055.89    28281.502 
  589300        446.5   0.49676838   0.49736916     10720.49    11176.543    21897.033    28281.502 
  589400          447   0.49982557   0.49103945     10674.66    11245.326    21919.986    28281.502 
  589500        447.5   0.49452803   0.49584989    10795.699    11126.139    21921.838    28281.502 
  589600          448   0.49764636   0.46972167    10755.919    11196.297    21952.215    28281.502 
  589700        448.5   0.49657777   0.46758418    10853.377    11172.255    22025.632    28281.502 
  589800          449   0.49660256   0.53254505    10686.945    11172.813    21859.758    28281.502 
  589900        449.5   0.49641099    0.4041773    10705.058    11168.503    21873.561    28281.502 
  590000          450   0.49514753   0.55003905    10760.709    11140.077    21900.786    28281.502 
  590100        450.5   0.49809003   0.49970841    10762.788    11206.278    21969.066    28281.502 
  590200          451   0.49513746    0.4792481    10938.944     11139.85    22078.794    28281.502 
  590300        451.5   0.49835151   0.47979776     10671.19    11212.161    21883.351    28281.502 
  590400          452   0.49962483   0.46261894    10840.264    11240.809    22081.074    28281.502 
  590500        452.5   0.49604845   0.51422395    10831.347    11160.346    21991.693    28281.502 
  590600          453   0.50285906   0.50470286    10767.068    11313.575    22080.642    28281.502 
  590700        453.5   0.49876189   0.41452543    10905.671    11221.394    22127.066    28281.502 
  590800          454   0.49989219   0.48786414    10833.871    11246.824    22080.696    28281.502 
  590900        454.5   0.50346903   0.50436899     10782.88    11327.298    22110.178    28281.502 
  591000          455   0.50332102   0.41616875    10897.876    11323.968    22221.844    28281.502 
  591100        455.5   0.50418239   0.51221644    10872.112    11343.347     22215.46    28281.502 
  591200          456   0.50582494   0.48300357    10868.931    11380.302    22249.234    28281.502 
  591300        456.5   0.50304084   0.51493029    10804.011    11317.664    22121.675    28281.502 
  591400          457   0.50183852   0.50818712    10766.574    11290.614    22057.188    28281.502 
  591500        457.5   0.49872676   0.49701877    10806.771    11220.604    22027.375    28281.502 
  591600          458   0.50147698   0.43658503    10762.495     11282.48    22044.975    28281.502 
  591700        458.5   0.49459495   0.47633054    10840.622    11127.644    21968.266    28281.502 
  591800          459   0.49926273   0.51424345    10728.641    11232.662    21961.304    28281.502 
  591900        459.5   0.49430779   0.44574831    10742.279    11121.184    21863.463    28281.502 
  592000          460   0.49471659   0.50764994    10787.314    11130.381    21917.695    28281.502 
  592100        460.5   0.49596651   0.44610726    10777.946    11158.503    21936.448    28281.502 
  592200          461   0.50097273   0.55471921    10753.259    11271.135    22024.394    28281.502 
  592300        461.5   0.50531185   0.51722614    10813.866    11368.759    22182.625    28281.502 
  592400          462    0.5035817   0.47032537    10822.221    11329.833    22152.054    28281.502 
  592500        462.5   0.50466015   0.51619372    10820.761    11354.096    22174.857    28281.502 
  592600          463   0.50404296   0.45153739    10783.805     11340.21    22124.016    28281.502 
  592700        463.5   0.50044989   0.51917219    10777.927    11259.372    22037.299    28281.502 
  592800          464   0.49483092   0.47075215    10913.671    11132.953    22046.624    28281.502 
  592900        464.5   0.50204795    0.4840383    10745.378    11295.326    22040.704    28281.502 
  593000          465   0.50266792    0.5455628    10786.886    11309.274     22096.16    28281.502 
  593100        465.5    0.5032176   0.46701738    10822.707    11321.641    22144.348    28281.502 
  593200          466   0.49680481   0.46973808    10840.666    11177.363    22018.029    28281.502 
  593300        466.5   0.50071515   0.52120837    10773.928     11265.34    22039.268    28281.502 
  593400          467   0.49968649   0.46116931    10846.556    11242.197    22088.753    28281.502 
  593500        467.5   0.49968872   0.48355464    10799.397    11242.247    22041.644    28281.502 
  593600          468   0.50846649   0.50034108    10725.522    11439.733    22165.255    28281.502 
  593700        468.5   0.50125862   0.49475709    10887.872    11277.567    22165.439    28281.502 
  593800          469   0.50291943    0.4884236    10981.454    11314.933    22296.387    28281.502 
  593900        469.5   0.50469157    0.5091256    10819.818    11354.803    22174.621    28281.502 
  594000          470   0.50257187   0.51706335    10769.654    11307.113    22076.767    28281.502 
  594100        470.5   0.50280103   0.41872042    10755.806    11312.269    22068.075    28281.502 
  594200          471   0.49771429   0.50547236    10779.123    11197.825    21976.948    28281.502 
  594300        471.5   0.49966185   0.47949725    10698.471    11241.642    21940.113    28281.502 
  594400          472   0.49734566   0.52612699    10790.518    11189.531    21980.049    28281.502 
  594500        472.5    0.4963267   0.45575206    10713.807    11166.606    21880.413    28281.502 
  594600          473   0.49881718   0.51494993    10576.047    11222.638    21798.685    28281.502 
  594700        473.5   0.49505594    0.4413015     10802.35    11138.016    21940.366    28281.502 
  594800          474   0.50387869   0.50101535    10575.068    11336.515    21911.582    28281.502 
  594900        474.5   0.49547693   0.54206458    10749.314    11147.488    21896.801    28281.502 
  595000          475   0.49840393   0.42170093     10754.56    11213.341      21967.9    28281.502 
  595100        475.5   0.50240937   0.52735487    10880.845    11303.457    22184.302    28281.502 
  595200          476   0.50566243   0.48487331    10816.691    11376.646    22193.337    28281.502 
  595300        476.5   0.49930522   0.46676461    10900.981    11233.618      22134.6    28281.502 
  595400          477   0.50762094   0.55642768    10835.396     11420.71    22256.105    28281.502 
  595500        477.5   0.50388773   0.46327643    10803.631    11336.718    22140.349    28281.502 
  595600          478   0.50476041   0.49877408    10729.829    11356.352    22086.181    28281.502 
  595700        478.5   0.50717668   0.48281776    10967.854    11410.715    22378.569    28281.502 
  595800          479   0.50919146    0.4678885    10909.492    11456.044    22365.536    28281.502 
  595900        479.5   0.50399161   0.50461892    10824.013    11339.055    22163.068    28281.502 
  596000          480   0.50500917   0.48870679    10710.792    11361.949     22072.74    28281.502 
  596100        480.5   0.49971771   0.48357298     10706.11    11242.899    21949.009    28281.502 
  596200          481   0.50192425   0.56860597    10749.986    11292.543    22042.528    28281.502 
  596300        481.5    0.5028095   0.48380363    10676.817     11312.46    21989.277    28281.502 
  596400          482   0.49853144    0.4537011    10742.556     11216.21    21958.765    28281.502 
  596500        482.5   0.49835577   0.51308664    10683.848    11212.257    21896.106    28281.502 
  596600          483   0.49776125   0.44934624    10815.719    11198.881      22014.6    28281.502 
  596700        483.5   0.50052272   0.49371504    10753.104     11261.01    22014.115    28281.502 
  596800          484   0.50153794   0.47472909    10800.622    11283.851    22084.473    28281.502 
  596900        484.5   0.49946661   0.52992293    10689.957    11237.249    21927.206    28281.502 
  597000          485   0.49748205   0.44871954    10668.994      11192.6    21861.593    28281.502 
  597100        485.5   0.49516077    0.5192817    10703.417    11140.375    21843.791    28281.502 
  597200          486   0.50053477    0.4580234    10713.322    11261.282    21974.604    28281.502 
  597300        486.5   0.50196566   0.49227784    10800.362    11293.474    22093.836    28281.502 
  597400          487   0.50394174   0.53774521    10817.091    11337.933    22155.024    28281.502 
  597500        487.5   0.50083621   0.45316277    10674.372    11268.064    21942.436    28281.502 
  597600          488   0.49394788   0.50671073    10806.302    11113.086    21919.389    28281.502 
  597700        488.5   0.50179487   0.43812452    10669.651    11289.632    21959.283    28281.502 
  597800          489   0.49684366   0.51247584    10747.753    11178.237     21925.99    28281.502 
  597900        489.5   0.49510205    0.4688341    10718.508    11139.054    21857.561    28281.502 
  598000          490   0.49768116   0.51685223    10713.387     11197.08    21910.467    28281.502 
  598100        490.5    0.4972375   0.49818493    10718.694    11187.098    21905.792    28281.502 
  598200          491   0.49777984   0.44440076     10628.02      11199.3    21827.319    28281.502 
  598300        491.5   0.50263393   0.52047229    10681.468     11308.51    21989.978    28281.502 
  598400          492    0.4958892   0.46156325    10748.226    11156.763    21904.989    28281.502 
  598500        492.5   0.49671955   0.51353115    10694.107    11175.445    21869.552    28281.502 
  598600          493   0.50103393   0.47788601    10679.746    11272.512    21952.258    28281.502 
  598700        493.5   0.49614078   0.50501483    10882.799    11162.423    22045.222    28281.502 
  598800          494   0.49387737   0.50819294    10915.196      11111.5    22026.696    28281.502 
  598900        494.5   0.49606473   0.46637521    10732.225    11160.712    21892.937    28281.502 
  599000          495   0.50108683   0.47899232    10686.262    11273.702    21959.964    28281.502 
  599100        495.5   0.50043224   0.48660674    10782.036    11258.975     22041.01    28281.502 
  599200          496   0.49735546   0.49081894     10782.93    11189.752    21972.682    28281.502 
  599300        496.5    0.4981038   0.48541862    10754.305    11206.588    21960.893    28281.502 
  599400          497   0.49921391    0.4850316    10794.278    11231.564    22025.842    28281.502 
  599500        497.5   0.50146198   0.51938439    10835.202    11282.142    22117.344    28281.502 
  599600          498   0.50133479   0.48857901    10926.529    11279.281     22205.81    28281.502 
  599700        498.5   0.49981231   0.49409505    10850.881    11245.027    22095.908    28281.502 
  599800          499   0.50008338    0.4991654    10736.249    11251.126    21987.375    28281.502 
  599900        499.5   0.49914734   0.43832654    10834.634    11230.066    22064.701    28281.502 
  600000          500   0.50188876   0.52476801    10732.136    11291.744     22023.88    28281.502 
Loop time of 214.898 on 1 procs for 50000 steps with 15000 atoms

Performance: 100512.977 tau/day, 232.669 timesteps/s
96.8% CPU use with 1 MPI tasks x 1 OpenMP threads

MPI task timing breakdown:
Section |  min time  |  avg time  |  max time  |%varavg| %total
---------------------------------------------------------------
Pair    | 21.32      | 21.32      | 21.32      |   0.0 |  9.92
Bond    | 56.373     | 56.373     | 56.373     |   0.0 | 26.23
Neigh   | 38.698     | 38.698     | 38.698     |   0.0 | 18.01
Comm    | 7.251      | 7.251      | 7.251      |   0.0 |  3.37
Output  | 33.724     | 33.724     | 33.724     |   0.0 | 15.69
Modify  | 55.171     | 55.171     | 55.171     |   0.0 | 25.67
Other   |            | 2.361      |            |       |  1.10

Nlocal:    15000 ave 15000 max 15000 min
Histogram: 1 0 0 0 0 0 0 0 0 0
Nghost:    6283 ave 6283 max 6283 min
Histogram: 1 0 0 0 0 0 0 0 0 0
Neighs:    27899 ave 27899 max 27899 min
Histogram: 1 0 0 0 0 0 0 0 0 0

Total # of neighbors = 27899
Ave neighs/atom = 1.85993
Ave special neighs/atom = 5.2
Neighbor list builds = 4414
Dangerous builds = 748
write_restart restart.time*

#This section  of codes allows looping over the list of T values
clear
OMP_NUM_THREADS environment is not set. Defaulting to 1 thread. (../comm.cpp:94)
  using 1 OpenMP thread(s) per MPI task
next mix_steps
jump in.run_loop loop  #jumps back to loop label

# shell py phase_plot.py #runs phase analysis
# shell py director_plot.py #runs phase analysis
Total wall time: 0:46:31
