LAMMPS (3 Mar 2020)
OMP_NUM_THREADS environment is not set. Defaulting to 1 thread. (../comm.cpp:94)
  using 1 OpenMP thread(s) per MPI task
#run with lmp_serial -pk omp 8 -sf omp -in in.run_loop

#SETUP
# Runs on the first loop only
shell del *.dump     # delete all dump files before first run CAREFUL WITH THIS
shell del restart.time*     # delete all current restart files before first run
shell lmp_serial -in in.run_setup     # first run of file, generate first restart file

#VARIABLES
variable N         equal  1024  #MUST BE SAME AS SETUP FILE FOR PHASEPLOT
variable T         equal  0.5
variable t_step    equal  0.005 #originally 0.005
variable mix_steps index  75000 75000 150000 150000 150000 300000 300000 300000
variable mix_tau   equal  ${t_step}*${mix_steps}
variable mix_tau   equal  0.005*${mix_steps}
variable mix_tau   equal  0.005*75000
variable run_steps equal  50000 # steps to run simulation in order to reach steady state
variable run_tau   equal  ${t_step}*${run_steps} # this is the time in LJ units
variable run_tau   equal  0.005*${run_steps} 
variable run_tau   equal  0.005*50000 
#1000 particles averages 35,000 steps per minute

#LOOP START
label loop  #start loop from here
read_restart restart.time*
  restoring atom style molecular from restart
  orthogonal box = (-0 -0 -0) to (18.24 40.32 18.24)
  1 by 1 by 1 MPI processor grid
  restoring pair style lj/cut from restart
  restoring bond style harmonic from restart
  restoring angle style harmonic from restart
  10240 atoms
  9216 bonds
  8192 angles
  2 = max # of 1-2 neighbors
  2 = max # of 1-3 neighbors
  4 = max # of 1-4 neighbors
  6 = max # of special neighbors
  special bonds CPU = 0.0228381 secs
  read_restart CPU = 0.0568471 secs
# this reads in latest restart file, * is wildcard for timestep


# THERMAL
timestep ${t_step}
timestep 0.005
thermo   100
thermo_style custom step time temp press pe ke etotal vol
thermo_modify norm no


# DUMP OUTPUT
dump  1  all custom 10000 output_T_${T}_time_*.dump id mol type x y z vx vy vz
dump  1  all custom 10000 output_T_0.5_time_*.dump id mol type x y z vx vy vz
# dumps all positions etc every N  steps
dump_modify 1 sort id

# FIX
fix 2 all nph iso 0.0001 0.0001 1000   #reduced target pressure here
fix 3 all langevin ${T} ${T} 1 123456 #as above
fix 3 all langevin 0.5 ${T} 1 123456 
fix 3 all langevin 0.5 0.5 1 123456 
run ${mix_steps}
run 75000
Neighbor list info ...
  update every 1 steps, delay 10 steps, check yes
  max neighbors/atom: 2000, page size: 100000
  master list distance cutoff = 1.42
  ghost atom cutoff = 1.9
  binsize = 0.71, bins = 26 57 26
  1 neighbor lists, perpetual/occasional/extra = 1 0 0
  (1) pair lj/cut, perpetual
      attributes: half, newton on
      pair build: half/bin/newton
      stencil: half/bin/3d/newton
      bin: standard
Per MPI rank memory allocation (min/avg/max) = 16.42 | 16.42 | 16.42 Mbytes
Step Time Temp Press PotEng KinEng TotEng Volume 
       0            0            0 -2.7685018e-15 1.4565528e-23            0 1.4565528e-23    13414.367 
     100          0.5   0.20986137   0.51228373    2794.6984    3223.1558    6017.8542    13414.368 
     200            1   0.33250547   0.81897143    4389.3149    5106.7853    9496.1002    13414.376 
     300          1.5   0.40001409   0.83233581    5484.9583    6143.6163    11628.575    13414.393 
     400            2   0.44041996   0.80408567     6085.428    6764.1899    12849.618    13414.421 
     500          2.5   0.46904669   0.84292843    6428.5472    7203.8536    13632.401    13414.461 
     600            3   0.48050537   0.84704822     6698.377    7379.8417    14078.219    13414.511 
     700          3.5   0.49357483   0.91712205    6816.7047     7580.569    14397.274    13414.573 
     800            4   0.50101076    0.7936272    6915.6531    7694.7737    14610.427    13414.646 
     900          4.5   0.49942937   0.74602013    6833.4021     7670.486    14503.888     13414.73 
    1000            5   0.49513429   0.81318143    6932.6772    7604.5201    14537.197    13414.825 
    1100          5.5   0.50471543   0.83555795    6870.1727    7751.6719    14621.845    13414.931 
    1200            6   0.50089717   0.81061499    6955.4663    7693.0291    14648.495    13415.048 
    1300          6.5    0.4997579   0.87600688    6848.6136    7675.5317    14524.145    13415.176 
    1400            7   0.49722037   0.79819728    6863.2956     7636.559    14499.855    13415.314 
    1500          7.5    0.5023959    0.8073136    6795.5012    7716.0475    14511.549    13415.464 
    1600            8   0.50430041   0.88941702    6858.8999    7745.2979    14604.198    13415.624 
    1700          8.5   0.50427169   0.78387943    6869.2185    7744.8568    14614.075    13415.795 
    1800            9   0.49722263   0.74419035    6905.7842    7636.5938    14542.378    13415.976 
    1900          9.5   0.50394245   0.80619364    6819.9126    7739.8001    14559.713    13416.168 
    2000           10   0.50366003   0.89149345    6849.0089    7735.4626    14584.472    13416.371 
    2100         10.5   0.50119235   0.87744078    6893.6075    7697.5628     14591.17    13416.585 
    2200           11   0.49337486   0.76366473    6890.5767    7577.4978    14468.074     13416.81 
    2300         11.5   0.49679596   0.80388506    6829.2232    7630.0408    14459.264    13417.045 
    2400           12    0.4992579   0.79783094    6852.3568    7667.8524    14520.209    13417.292 
    2500         12.5   0.50164038   0.86428351    6978.1706    7704.4438    14682.614     13417.55 
    2600           13   0.50478818    0.8723923    6994.8595    7752.7893    14747.649    13417.819 
    2700         13.5   0.50588603   0.88342342    7018.8905    7769.6506    14788.541    13418.099 
    2800           14   0.50769175   0.83452539    6840.9643    7797.3838    14638.348     13418.39 
    2900         14.5   0.50211149   0.80604868     6918.054    7711.6792    14629.733    13418.693 
    3000           15   0.50469857   0.69643706    6839.0591     7751.413    14590.472    13419.007 
    3100         15.5    0.5017429   0.80451987    6779.4102    7706.0183    14485.428    13419.331 
    3200           16   0.49821584   0.87428223    6801.5322    7651.8479     14453.38    13419.666 
    3300         16.5    0.4984614   0.84574046    6778.7971    7655.6193    14434.416    13420.012 
    3400           17   0.50746792   0.74713763    6756.1604     7793.946    14550.106    13420.368 
    3500         17.5    0.5001569   0.69699353    6799.3818    7681.6597    14481.042    13420.735 
    3600           18     0.495598   0.74410805    6836.6462    7611.6419    14448.288    13421.112 
    3700         18.5   0.49498822   0.84377106    6872.3132    7602.2766     14474.59    13421.499 
    3800           19   0.49676921   0.80093224    6862.4198    7629.6299     14492.05    13421.897 
    3900         19.5   0.49983337   0.73360474    6827.3693    7676.6909     14504.06    13422.306 
    4000           20   0.49931064   0.86705563    6769.6889    7668.6625    14438.351    13422.724 
    4100         20.5   0.49761649   0.77603867    6789.6342    7642.6428    14432.277    13423.154 
    4200           21   0.49346875   0.77712646    6754.4679    7578.9398    14333.408    13423.594 
    4300         21.5   0.49691241   0.87075324     6811.461    7631.8293     14443.29    13424.045 
    4400           22   0.49610939   0.79792886    6878.0704    7619.4961    14497.566    13424.507 
    4500         22.5   0.50471025   0.70673731    6831.7548    7751.5923    14583.347    13424.979 
    4600           23   0.50381184   0.82083564    6903.7875    7737.7941    14641.582    13425.462 
    4700         23.5   0.49777763   0.86867816    6881.3388    7645.1178    14526.457    13425.955 
    4800           24   0.50053917    0.8654803    6814.1462    7687.5309    14501.677    13426.459 
    4900         24.5   0.49484482   0.80697867    6832.6746    7600.0741    14432.749    13426.974 
    5000           25   0.49573347   0.81993818    6870.2872    7613.7225     14484.01    13427.501 
    5100         25.5   0.49899024   0.80594933    6857.8542    7663.7416    14521.596    13428.038 
    5200           26   0.50109515   0.90303843    6792.8193    7696.0698    14488.889    13428.586 
    5300         26.5   0.50663311   0.81046844    6783.4964    7781.1246    14564.621    13429.144 
    5400           27    0.4977542   0.73734487    6886.5656    7644.7578    14531.323    13429.713 
    5500         27.5   0.50476273   0.86297881    6855.8097    7752.3984    14608.208    13430.292 
    5600           28   0.50677315     0.797128    6888.4843    7783.2754     14671.76    13430.882 
    5700         28.5   0.49913117   0.78307464    6908.9645     7665.906    14574.871    13431.482 
    5800           29   0.49801748   0.79494038    6893.2782    7648.8015     14542.08    13432.093 
    5900         29.5   0.49985145   0.80821603    6850.0374    7676.9685    14527.006    13432.714 
    6000           30   0.50146444   0.84548218    6857.1328    7701.7416    14558.874    13433.346 
    6100         30.5   0.49831357   0.80077124    6944.7506    7653.3489    14598.099    13433.988 
    6200           31   0.50022635   0.80268638    6964.6384    7682.7264    14647.365    13434.641 
    6300         31.5   0.49784527   0.86884198    6920.2969    7646.1565    14566.453    13435.305 
    6400           32   0.49484624    0.8746488    6921.1294    7600.0959    14521.225     13435.98 
    6500         32.5   0.49527708   0.87127883    6855.3136     7606.713    14462.027    13436.666 
    6600           33   0.49696271   0.86987317    6800.7687    7632.6018     14433.37    13437.363 
    6700         33.5   0.49905731    0.7901776    6892.1624    7664.7717    14556.934    13438.071 
    6800           34   0.50212561   0.75131834    6809.8771    7711.8961    14521.773    13438.788 
    6900         34.5    0.4992866   0.85803224    6885.4345    7668.2932    14553.728    13439.516 
    7000           35   0.50335743    0.8584497    6790.5907     7730.815    14521.406    13440.255 
    7100         35.5   0.49611085   0.79690739     6767.894    7619.5184    14387.412    13441.004 
    7200           36   0.49479951   0.83484804    6844.0482    7599.3782    14443.426    13441.763 
    7300         36.5   0.49082321    0.8093143     6846.547    7538.3082    14384.855    13442.533 
    7400           37    0.4965079   0.76354526    6888.9565    7625.6166    14514.573    13443.313 
    7500         37.5   0.50316819   0.75064213    6863.6264    7727.9086    14591.535    13444.104 
    7600           38   0.50255387   0.80590412    6844.7234    7718.4736    14563.197    13444.905 
    7700         38.5   0.49739761   0.77471815    6874.2559    7639.2812    14513.537    13445.717 
    7800           39   0.49947506   0.77234715    6876.2273    7671.1877    14547.415    13446.538 
    7900         39.5   0.50236828    0.7718627    6867.1121    7715.6233    14582.735     13447.37 
    8000           40   0.50260483     0.736253    6845.6638    7719.2562     14564.92    13448.213 
    8100         40.5   0.49539016   0.68731948    6821.7399    7608.4497     14430.19    13449.065 
    8200           41   0.49608602    0.8723904    6856.4289    7619.1372    14475.566    13449.927 
    8300         41.5   0.49932369   0.81453742    6765.2377    7668.8629    14434.101    13450.799 
    8400           42   0.49561463   0.84828287    6882.6706    7611.8972    14494.568    13451.682 
    8500         42.5   0.49920102   0.77679936    6884.6221    7666.9788    14551.601    13452.576 
    8600           43   0.49333698   0.77720551    6899.0444     7576.916     14475.96    13453.479 
    8700         43.5   0.50218996   0.62468788    6724.5117    7712.8844    14437.396    13454.393 
    8800           44   0.50303552   0.68583126    6741.2175     7725.871    14467.088    13455.317 
    8900         44.5    0.5016852   0.80699155    6787.2948    7705.1322    14492.427     13456.25 
    9000           45   0.49661469    0.7992674    6895.0987    7627.2568    14522.355    13457.193 
    9100         45.5   0.50044619   0.75463718    6838.4847    7686.1029    14524.588    13458.147 
    9200           46   0.51011022   0.74470912    6817.7996    7834.5279    14652.327     13459.11 
    9300         46.5   0.50457931    0.8526674    6900.0868    7749.5813    14649.668    13460.083 
    9400           47   0.50256496   0.82516474    6872.2254    7718.6439    14590.869    13461.066 
    9500         47.5   0.50514018   0.78609432     6866.406    7758.1954    14624.601    13462.059 
    9600           48   0.49432997   0.79614187    6912.0101    7592.1668    14504.177    13463.062 
    9700         48.5   0.49464342    0.7782717    6861.2946    7596.9809    14458.276    13464.074 
    9800           49   0.49952926   0.74190711    6795.5862    7672.0202    14467.606    13465.097 
    9900         49.5    0.4985488   0.81559877    6798.7466    7656.9618    14455.708    13466.129 
   10000           50    0.4932721   0.71042607    6825.2346    7575.9195    14401.154    13467.172 
   10100         50.5   0.49315689   0.76837276    6838.6857    7574.1501    14412.836    13468.224 
   10200           51   0.49635735   0.77786123    6887.7373    7623.3043    14511.042    13469.285 
   10300         51.5   0.49793499   0.74121656     6827.162    7647.5345    14474.697    13470.356 
   10400           52   0.50119505   0.79223513    6816.9525    7697.6042    14514.557    13471.436 
   10500         52.5   0.49787424   0.68464493     6856.683    7646.6015    14503.284    13472.526 
   10600           53    0.4966335   0.69562264    6953.1221    7627.5456    14580.668    13473.625 
   10700         53.5    0.5014903   0.73741314    6917.8822    7702.1387    14620.021    13474.734 
   10800           54   0.49957731   0.75959412    6861.2631    7672.7581    14534.021    13475.852 
   10900         54.5   0.49596215   0.79015476    6853.7053    7617.2347     14470.94     13476.98 
   11000           55   0.50242679   0.80798607    6823.0464    7716.5218    14539.568    13478.117 
   11100         55.5   0.50843651    0.7561477    6853.4319    7808.8222    14662.254    13479.263 
   11200           56   0.50834754   0.70677206    6903.5068    7807.4557    14710.963    13480.418 
   11300         56.5   0.49972327   0.75800806    7010.8472    7674.9999    14685.847    13481.582 
   11400           57    0.5017466   0.77030961    7001.5162    7706.0752    14707.591    13482.755 
   11500         57.5    0.4983572   0.73680809     6956.174    7654.0191    14610.193    13483.937 
   11600           58   0.49441865   0.71391551    6858.0768    7593.5288    14451.606    13485.127 
   11700         58.5   0.49726414    0.7450348    6952.6333    7637.2313    14589.865    13486.326 
   11800           59   0.50243455   0.78091148    6900.6101     7716.641    14617.251    13487.534 
   11900         59.5   0.49841347   0.69302911    6917.3052    7654.8832    14572.188    13488.752 
   12000           60    0.5035125   0.79174888    6788.4486    7733.1968    14521.645    13489.978 
   12100         60.5    0.5050399   0.86814582    6802.7495    7756.6553    14559.405    13491.213 
   12200           61   0.50065236    0.8493601    6945.0096    7689.2692    14634.279    13492.458 
   12300         61.5   0.49998795   0.72000468    6889.2572     7679.065    14568.322    13493.711 
   12400           62   0.49855942   0.77960074    6928.8401    7657.1249    14585.965    13494.973 
   12500         62.5   0.49910672   0.75864404    6925.8657    7665.5306    14591.396    13496.244 
   12600           63   0.49406013   0.77173936     6830.494    7588.0225    14418.517    13497.524 
   12700         63.5   0.49902895   0.73539185     6860.759    7664.3361    14525.095    13498.812 
   12800           64    0.5016255   0.71586532    6787.6572    7704.2152    14491.872    13500.109 
   12900         64.5   0.50044779   0.77006592    6872.8359    7686.1274    14558.963    13501.413 
   13000           65   0.50130268   0.64582048    6912.4121    7699.2572    14611.669    13502.727 
   13100         65.5   0.50218529   0.75427159      6953.08    7712.8128    14665.893    13504.048 
   13200           66   0.49679999   0.76015981    6947.7443    7630.1027    14577.847    13505.378 
   13300         66.5   0.49959302   0.85803057    6882.0312    7672.9993    14555.031    13506.716 
   13400           67   0.50454056   0.75857913    6825.9516    7748.9862    14574.938    13508.062 
   13500         67.5   0.50036552   0.70276858    6854.9766    7684.8638     14539.84    13509.417 
   13600           68   0.50197011    0.7918503      6834.65    7709.5079    14544.158    13510.779 
   13700         68.5   0.49562393   0.76076191    6878.1158    7612.0401    14490.156    13512.149 
   13800           69   0.50094369   0.80648808    6911.1501    7693.7437    14604.894    13513.528 
   13900         69.5   0.49813816   0.80215037    6921.9182    7650.6549    14572.573    13514.914 
   14000           70   0.49724829   0.76224232    6952.7878    7636.9879    14589.776    13516.309 
   14100         70.5   0.49690613   0.78935454    6955.8596    7631.7328    14587.592    13517.711 
   14200           71   0.50862485   0.73890083    6866.4461    7811.7147    14678.161     13519.12 
   14300         71.5   0.49817146   0.66511611    6880.5811    7651.1664    14531.747    13520.538 
   14400           72   0.49796719   0.75863245    7025.9905    7648.0291     14674.02    13521.963 
   14500         72.5   0.50049596   0.71684982    6803.6026    7686.8672     14490.47    13523.395 
   14600           73   0.49887883   0.71229387     6841.735    7662.0305    14503.766    13524.834 
   14700         73.5   0.50069205   0.66762814    6852.3411    7689.8788     14542.22     13526.28 
   14800           74   0.49971978    0.8004243    6934.8632    7674.9462    14609.809    13527.733 
   14900         74.5   0.50145219   0.86725826    6871.5583    7701.5535    14573.112    13529.193 
   15000           75   0.50257551   0.76446248    6835.8985    7718.8059    14554.704     13530.66 
   15100         75.5   0.49634702   0.82076692     6828.045    7623.1457    14451.191    13532.135 
   15200           76   0.49284591   0.74060125    6866.9858    7569.3739     14436.36    13533.617 
   15300         76.5   0.50426877   0.75328365    6830.7017    7744.8119    14575.514    13535.106 
   15400           77   0.50037855    0.7959407    6767.2161    7685.0639     14452.28    13536.602 
   15500         77.5   0.49585732   0.77731997     6772.175    7615.6246      14387.8    13538.105 
   15600           78   0.49054891   0.72469195    6822.4658    7534.0955    14356.561    13539.614 
   15700         78.5   0.49071594   0.76603976    6820.4653    7536.6608    14357.126     13541.13 
   15800           79   0.49424248   0.71502965    6721.1577    7590.8232    14311.981    13542.652 
   15900         79.5   0.49501657   0.70534856    6702.4428     7602.712    14305.155    13544.181 
   16000           80   0.49320861   0.73170762    6788.9103    7574.9444    14363.855    13545.716 
   16100         80.5   0.50220219    0.7248811    6856.9428    7713.0723    14570.015    13547.257 
   16200           81   0.49444808   0.64427052    6884.2556    7593.9808    14478.236    13548.804 
   16300         81.5   0.49938165   0.80323674    6904.3189     7669.753    14574.072    13550.358 
   16400           82   0.49901579   0.78255119    6840.5032    7664.1341    14504.637    13551.917 
   16500         82.5   0.50183905   0.66301278    6880.0842    7707.4951    14587.579    13553.482 
   16600           83   0.50000833   0.68869506    6835.0104     7679.378    14514.388    13555.053 
   16700         83.5   0.49439951   0.71128799    6934.5294    7593.2349    14527.764    13556.629 
   16800           84    0.4984568   0.65523985    6874.6328    7655.5487    14530.182     13558.21 
   16900         84.5   0.49619843   0.70853783    6875.5945    7620.8636    14496.458    13559.797 
   17000           85   0.49776513   0.77776659    6806.5295    7644.9258    14451.455    13561.389 
   17100         85.5   0.49608001   0.79421084    6861.9871    7619.0448    14481.032    13562.986 
   17200           86    0.4993134   0.67964583    6846.1165    7668.7049    14514.821    13564.588 
   17300         86.5   0.50426249   0.70598483    6837.8966    7744.7154    14582.612    13566.196 
   17400           87   0.50602199   0.73974742    6996.3136    7771.7387    14768.052    13567.809 
   17500         87.5   0.49538171   0.69954009    7043.4453    7608.3199    14651.765    13569.426 
   17600           88   0.50210109    0.7684065    6766.5378    7711.5195    14478.057    13571.048 
   17700         88.5   0.50342732   0.64218719    6853.8607    7731.8885    14585.749    13572.675 
   17800           89   0.49851975    0.6646354    6830.3305    7656.5155    14486.846    13574.305 
   17900         89.5   0.49576503   0.69692724    6801.1072    7614.2073    14415.314     13575.94 
   18000           90   0.49344045   0.77001449    6813.7438    7578.5051    14392.249     13577.58 
   18100         90.5   0.49588645   0.69607823    6920.1157     7616.072    14536.188    13579.224 
   18200           91   0.49943349   0.67331297    6925.7988    7670.5493    14596.348    13580.871 
   18300         91.5   0.50403881   0.69747179    6822.9227      7741.28    14564.203    13582.524 
   18400           92   0.50055074   0.74648035    6806.0897    7687.7085    14493.798     13584.18 
   18500         92.5   0.50539794   0.81760732     6880.519    7762.1542    14642.673     13585.84 
   18600           93    0.5032096    0.7144908    6941.0989    7728.5447    14669.644    13587.504 
   18700         93.5   0.50573156   0.65289905    6905.9787    7767.2782    14673.257    13589.172 
   18800           94   0.50569749   0.66662544    6886.2454     7766.755        14653    13590.844 
   18900         94.5    0.5084695   0.82387222    6867.8069    7809.3288    14677.136    13592.518 
   19000           95   0.50142232   0.83617149    6945.7012    7701.0947    14646.796    13594.197 
   19100         95.5   0.50141477   0.78164288    6944.8536    7700.9787    14645.832    13595.879 
   19200           96   0.50204259   0.64535273    6833.8617    7710.6212    14544.483    13597.564 
   19300         96.5   0.50111405    0.7825474    6805.1935    7696.3602    14501.554    13599.251 
   19400           97   0.50205639    0.7445009    6891.0823     7710.833    14601.915    13600.943 
   19500         97.5   0.50418902   0.80989685    6749.7105    7743.5871    14493.298    13602.637 
   19600           98   0.48865109   0.73358297    6769.8137    7504.9477    14274.761    13604.335 
   19700         98.5   0.48812333   0.71144993    6798.5102    7496.8422    14295.352    13606.034 
   19800           99   0.50018435   0.70191738    6907.9671    7682.0813    14590.048    13607.737 
   19900         99.5   0.50202465   0.79673123    6831.1426    7710.3456    14541.488    13609.442 
   20000          100   0.49319673   0.70414435    6897.9669     7574.762    14472.729    13611.149 
   20100        100.5   0.50543199   0.71060875    6775.6536    7762.6772    14538.331    13612.859 
   20200          101   0.49663087   0.78096547    6802.4778    7627.5052    14429.983    13614.571 
   20300        101.5   0.50047212   0.66992419    6929.8716     7686.501    14616.373    13616.285 
   20400          102   0.50111501   0.68459891    6913.3854    7696.3748     14609.76        13618 
   20500        102.5   0.49713283   0.76226609    6850.0124    7635.2146    14485.227    13619.717 
   20600          103   0.50119886   0.68040188    6807.2377    7697.6627      14504.9    13621.435 
   20700        103.5   0.49962961   0.67460096    6823.5086    7673.5614     14497.07    13623.155 
   20800          104   0.50260651   0.71326566    6842.6844    7719.2821    14561.967    13624.876 
   20900        104.5   0.50172913   0.67396581     6878.616    7705.8068    14584.423    13626.599 
   21000          105   0.49926849   0.78877599    6990.5075    7668.0152    14658.523    13628.323 
   21100        105.5   0.49777939   0.65820435    6945.1814    7645.1448    14590.326    13630.049 
   21200          106   0.50174913   0.68157656    6859.9754     7706.114    14566.089    13631.776 
   21300        106.5   0.50077131   0.70968271    6825.8496    7691.0962    14516.946    13633.504 
   21400          107   0.49942468   0.69443046    6950.6457    7670.4139     14621.06    13635.233 
   21500        107.5   0.50868681   0.71314621    6887.2439    7812.6663     14699.91    13636.963 
   21600          108   0.50564198   0.66948144     6852.598    7765.9024      14618.5    13638.694 
   21700        108.5   0.50195941   0.81785242    6898.2653    7709.3436    14607.609    13640.426 
   21800          109   0.49760495   0.74264692    6923.5825    7642.4657    14566.048    13642.158 
   21900        109.5   0.49732316   0.69834059    6939.0003    7638.1378    14577.138    13643.892 
   22000          110   0.49671941   0.65575895     6903.134    7628.8651    14531.999    13645.625 
   22100        110.5   0.50086587   0.71557809    6780.1178    7692.5485    14472.666    13647.358 
   22200          111   0.49845042   0.64964438     6935.539    7655.4508     14590.99    13649.092 
   22300        111.5   0.49978751   0.70695628    6806.7166    7675.9865    14482.703    13650.825 
   22400          112   0.49791404   0.77885386    6794.5988    7647.2128    14441.812    13652.558 
   22500        112.5   0.49784176   0.69919762    6822.8806    7646.1027    14468.983    13654.291 
   22600          113     0.501174   0.71295728    6851.7543    7697.2809    14549.035    13656.023 
   22700        113.5   0.49925174   0.66339896    6824.6013    7667.7579    14492.359    13657.756 
   22800          114   0.49992233   0.69055244    6849.3371     7678.057    14527.394    13659.488 
   22900        114.5   0.50090463   0.76599069    6811.4031    7693.1437    14504.547    13661.219 
   23000          115   0.50443471   0.73863061    6804.7587    7747.3605    14552.119    13662.951 
   23100        115.5   0.49867673   0.63383399    6864.3872    7658.9266    14523.314    13664.682 
   23200          116   0.50253224   0.64758869    6904.7563    7718.1414    14622.898    13666.413 
   23300        116.5   0.49852976   0.73943357    6803.6969    7656.6694    14460.366    13668.143 
   23400          117   0.49751615    0.6551887    6808.2709    7641.1018    14449.373    13669.873 
   23500        117.5   0.49853382   0.61644482    6860.5762    7656.7317    14517.308    13671.601 
   23600          118   0.50594763   0.74323609    6798.6986    7770.5966    14569.295    13673.329 
   23700        118.5   0.49915236   0.84293962    6901.6878    7666.2315    14567.919    13675.056 
   23800          119    0.4944937   0.69876534    6970.0216    7594.6815    14564.703    13676.782 
   23900        119.5   0.50061964   0.60247367    6818.1493    7688.7667    14506.916    13678.507 
   24000          120   0.50225333   0.69584045    6783.1246    7713.8577    14496.982    13680.231 
   24100        120.5   0.49422355   0.79012411    6804.0862    7590.5324    14394.619    13681.953 
   24200          121   0.49881274   0.72823243    6792.1557    7661.0154    14453.171    13683.673 
   24300        121.5    0.5032273   0.67312412    6823.8493    7728.8165    14552.666    13685.392 
   24400          122   0.50429151   0.72605459    6955.9065    7745.1611    14701.068     13687.11 
   24500        122.5   0.50012542   0.70475554     7032.714    7681.1762     14713.89    13688.826 
   24600          123   0.50801067   0.73085489    6921.4397    7802.2819    14723.722    13690.542 
   24700        123.5   0.50223492   0.71737951    6861.9949     7713.575     14575.57    13692.256 
   24800          124   0.50067575   0.68433538     6874.195    7689.6284    14563.823    13693.968 
   24900        124.5   0.50284709    0.6288113    6854.1264    7722.9771    14577.104    13695.678 
   25000          125   0.50111567   0.66643127    6802.6615    7696.3851    14499.047    13697.387 
   25100        125.5   0.50164376   0.71184039    6877.9467    7704.4957    14582.442    13699.093 
   25200          126   0.50767028   0.73245499    6810.7951     7797.054    14607.849    13700.797 
   25300        126.5   0.50229414   0.63359686    6834.6548    7714.4846    14549.139    13702.498 
   25400          127   0.49971178   0.63600301     6932.595    7674.8234    14607.418    13704.198 
   25500        127.5   0.50708061   0.64248451    6883.5124    7787.9975     14671.51    13705.896 
   25600          128   0.50543177   0.67083542     6869.328    7762.6738    14632.002    13707.591 
   25700        128.5   0.50096348   0.65939625    6787.3808    7694.0477    14481.429    13709.284 
   25800          129   0.49643724   0.67482329    6766.0688    7624.5313      14390.6    13710.974 
   25900        129.5   0.49884672    0.6144839    6873.3919    7661.5373    14534.929    13712.662 
   26000          130   0.50115644   0.65957462    6857.4952    7697.0112    14554.506    13714.348 
   26100        130.5   0.50011786   0.73785253    6888.1455    7681.0602    14569.206    13716.032 
   26200          131   0.50078596   0.71560759    6932.7304    7691.3212    14624.052    13717.713 
   26300        131.5    0.5054654   0.71503209    6913.2914    7763.1903    14676.482    13719.391 
   26400          132   0.50267278    0.7111415    6964.4568    7720.2998    14684.757    13721.067 
   26500        132.5   0.50693212   0.73286067    6896.8095    7785.7169    14682.526     13722.74 
   26600          133    0.5073316   0.68044765    6840.3153    7791.8524    14632.168    13724.412 
   26700        133.5   0.50452457   0.59202049    6831.4518    7748.7406    14580.192     13726.08 
   26800          134   0.49807359   0.60899216    7020.5185    7649.6632    14670.182    13727.745 
   26900        134.5   0.50407168   0.76395782    6795.1109    7741.7849    14536.896    13729.408 
   27000          135    0.5006534   0.71958872    6930.5536    7689.2853    14619.839    13731.067 
   27100        135.5   0.49800418   0.62564659    6863.2342    7648.5972    14511.831    13732.724 
   27200          136   0.49889515   0.75816719    6826.8876    7662.2811    14489.169    13734.378 
   27300        136.5   0.49671325   0.72324948    6812.7307    7628.7705    14441.501    13736.028 
   27400          137   0.49499197   0.59399903    6770.1711    7602.3341    14372.505    13737.676 
   27500        137.5   0.49504917   0.62084091    6761.6173    7603.2127     14364.83    13739.321 
   27600          138   0.49777057   0.70176018    6841.8345    7645.0093    14486.844    13740.963 
   27700        138.5   0.49777313   0.74144855    6848.0949    7645.0486    14493.143    13742.602 
   27800          139   0.50566478   0.62913099     6838.689    7766.2525    14604.941    13744.239 
   27900        139.5   0.50229095   0.73831375    6912.6645    7714.4356      14627.1    13745.872 
   28000          140   0.49951723   0.68398758    6842.1199    7671.8354    14513.955    13747.503 
   28100        140.5   0.49968262   0.61591017    6806.6496    7674.3754    14481.025    13749.131 
   28200          141   0.50063429   0.67733976    6870.4861    7688.9917    14559.478    13750.756 
   28300        141.5   0.50084204   0.65226597     6917.262    7692.1824    14609.444    13752.378 
   28400          142   0.50339034   0.64061884    6789.2793    7731.3205      14520.6    13753.996 
   28500        142.5   0.50082731    0.6462511    6824.5152    7691.9562    14516.471    13755.612 
   28600          143   0.50247935   0.70271067    6935.0689    7717.3291    14652.398    13757.225 
   28700        143.5   0.50505268   0.84236776    6789.3926    7756.8516    14546.244    13758.835 
   28800          144   0.49590714   0.64950283    6823.9972    7616.3898    14440.387    13760.443 
   28900        144.5   0.50072574   0.59021166    6852.7798    7690.3963    14543.176    13762.047 
   29000          145    0.4976038   0.64924563    6886.2336    7642.4479    14528.681    13763.649 
   29100        145.5   0.50844313   0.71131774    6818.0518    7808.9238    14626.976    13765.248 
   29200          146   0.50469019   0.64408627    6819.6314    7751.2842    14570.916    13766.844 
   29300        146.5   0.50058136   0.61501811    6824.6277    7688.1788    14512.807    13768.438 
   29400          147   0.49382691    0.7101148    6802.2915    7584.4406    14386.732    13770.028 
   29500        147.5   0.49838524   0.70446785     6831.551    7654.4497    14486.001    13771.616 
   29600          148   0.49226265   0.66402852     6857.609    7560.4159    14418.025    13773.201 
   29700        148.5   0.49716687   0.67717553    6848.6742    7635.7374    14484.412    13774.783 
   29800          149   0.49876742   0.59208306    6861.9066    7660.3194    14522.226    13776.363 
   29900        149.5   0.50042217   0.63879804    6871.3878    7685.7339    14557.122    13777.939 
   30000          150   0.50156259   0.68207344    6832.1194    7703.2491    14535.369    13779.512 
   30100        150.5   0.50067739   0.68222879    6884.5264    7689.6538     14574.18    13781.083 
   30200          151    0.5070491   0.74589179    6826.4493    7787.5136    14613.963    13782.651 
   30300        151.5   0.50101138   0.64170954    6834.3928    7694.7833    14529.176    13784.216 
   30400          152   0.50198293   0.78976631    6918.6511    7709.7048    14628.356    13785.779 
   30500        152.5    0.5028322   0.72139934    6859.0013    7722.7484     14581.75    13787.339 
   30600          153   0.49793419   0.71894977     6852.777    7647.5223    14500.299    13788.897 
   30700        153.5    0.4985547   0.71526994    6916.4607    7657.0524    14573.513    13790.452 
   30800          154   0.50703799   0.73375478    6937.6596     7787.343    14725.003    13792.005 
   30900        154.5    0.5043452    0.6635246    6842.4706    7745.9858    14588.456    13793.555 
   31000          155   0.49888345   0.55781634    6831.6608    7662.1014    14493.762    13795.103 
   31100        155.5   0.49753977   0.67098079    6865.3628    7641.4645    14506.827    13796.649 
   31200          156   0.49821095   0.75448232         6889    7651.7728    14540.773    13798.191 
   31300        156.5   0.50052232   0.67797005    6823.2776     7687.272     14510.55    13799.731 
   31400          157   0.49790147   0.70733243    6829.5268    7647.0197    14476.546    13801.269 
   31500        157.5   0.49357035   0.59881606    6843.1289    7580.5002    14423.629    13802.804 
   31600          158     0.497929    0.6778941    6813.4181    7647.4425    14460.861    13804.336 
   31700        158.5   0.49425096   0.68691753    6855.1259    7590.9534    14446.079    13805.865 
   31800          159   0.49977309   0.66041462    6745.4495     7675.765    14421.215    13807.391 
   31900        159.5   0.50101702   0.67708102    6818.2911    7694.8699    14513.161    13808.914 
   32000          160   0.50129356   0.65462564    6848.2605    7699.1171    14547.378    13810.435 
   32100        160.5   0.49930275   0.62034452    6802.4263    7668.5413    14470.968    13811.953 
   32200          161   0.49958058   0.56905708    6836.2854    7672.8083    14509.094    13813.469 
   32300        161.5   0.50321623   0.63653109    6935.9183    7728.6465    14664.565    13814.981 
   32400          162   0.50294344    0.7568029    6883.7535    7724.4568     14608.21    13816.492 
   32500        162.5   0.50281758   0.65878897    6988.2081    7722.5238    14710.732        13818 
   32600          163   0.50753769   0.60651307    6817.4438    7795.0176    14612.461    13819.506 
   32700        163.5   0.50047743   0.66989753    6887.9669    7686.5826     14574.55     13821.01 
   32800          164   0.49934661   0.72659737     6777.367     7669.215    14446.582    13822.512 
   32900        164.5   0.49993167   0.58077977     6775.569    7678.2005    14453.769    13824.012 
   33000          165    0.4935857   0.55453128    6809.1085     7580.736    14389.844     13825.51 
   33100        165.5   0.50109246   0.69726742    6775.9425    7696.0285    14471.971    13827.005 
   33200          166   0.50071771   0.70676021    6781.6984     7690.273    14471.971    13828.499 
   33300        166.5   0.49675668   0.67475133    6965.7567    7629.4375    14595.194    13829.991 
   33400          167   0.50660607   0.69768758    6902.4575    7780.7094    14683.167    13831.481 
   33500        167.5   0.49795691   0.70408862    6874.9826    7647.8711    14522.854     13832.97 
   33600          168   0.50217386   0.61971505    6914.8702    7712.6372    14627.507    13834.456 
   33700        168.5   0.50288628   0.68490941    6892.6235    7723.5789    14616.202    13835.941 
   33800          169   0.50231387   0.71882586    6902.0467    7714.7876    14616.834    13837.423 
   33900        169.5   0.51378009   0.75028002    6860.8906    7890.8916    14751.782    13838.905 
   34000          170   0.51120896   0.67778809    6826.7483    7851.4028    14678.151    13840.384 
   34100        170.5   0.50659105   0.64366997    6875.4933    7780.4787    14655.972    13841.863 
   34200          171   0.49813976   0.67684996    6827.3279    7650.6795    14478.007    13843.339 
   34300        171.5     0.496851    0.6864643    6886.6507    7630.8861    14517.537    13844.814 
   34400          172   0.50017695   0.71854847    6841.3026    7681.9676     14523.27    13846.288 
   34500        172.5   0.49675567   0.67638404    6873.5954    7629.4219    14503.017     13847.76 
   34600          173   0.49785191   0.70026133    6834.9069    7646.2586    14481.165    13849.231 
   34700        173.5   0.49656882    0.5744144    6846.4522    7626.5522    14473.004    13850.699 
   34800          174   0.50761646    0.6060549    6802.0007    7796.2274    14598.228    13852.166 
   34900        174.5   0.50482148   0.71968321    6874.2273    7753.3007    14627.528    13853.631 
   35000          175   0.50368536   0.76379751    6921.7505    7735.8517    14657.602    13855.095 
   35100        175.5   0.50287517   0.65970411    6872.8877    7723.4083    14596.296    13856.558 
   35200          176   0.49865274   0.59977425    6825.4513    7658.5582    14484.009    13858.019 
   35300        176.5   0.49843209   0.65699742    6862.4279    7655.1692    14517.597    13859.479 
   35400          177   0.49461727   0.69277946    7017.4028    7596.5793    14613.982    13860.938 
   35500        177.5   0.50208253   0.64985411    6918.1964    7711.2345    14629.431    13862.395 
   35600          178   0.50357581   0.68314928    6893.2486    7734.1691    14627.418     13863.85 
   35700        178.5   0.50195449   0.61254228    6907.6746     7709.268    14616.943    13865.304 
   35800          179   0.49666613   0.64198583    6954.6817    7628.0467    14582.728    13866.757 
   35900        179.5   0.50142896   0.67237943    6878.7775    7701.1967    14579.974    13868.209 
   36000          180   0.50180444   0.66628921    6822.6299    7706.9635    14529.593    13869.659 
   36100        180.5   0.50162695   0.61511531    6773.8007    7704.2375    14478.038    13871.107 
   36200          181   0.49801018   0.59132883    6901.3839    7648.6893    14550.073    13872.555 
   36300        181.5   0.50144948   0.68645381    6868.4581    7701.5119     14569.97    13874.001 
   36400          182   0.49670561   0.67291406    6823.8339    7628.6531    14452.487    13875.447 
   36500        182.5   0.49653368   0.60241637    6824.5667    7626.0125    14450.579    13876.892 
   36600          183   0.49974924   0.63150317    6860.7866    7675.3987    14536.185    13878.336 
   36700        183.5   0.49924356   0.58276837    6883.1415    7667.6322    14550.774    13879.779 
   36800          184   0.50281951   0.76414411    6891.9379    7722.5534    14614.491    13881.221 
   36900        184.5   0.50623863   0.76267612    6861.0236     7775.066     14636.09    13882.663 
   37000          185   0.50518323   0.67829962    6899.8092    7758.8566    14658.666    13884.104 
   37100        185.5    0.5065277   0.64715238    7012.6081    7779.5057    14792.114    13885.544 
   37200          186   0.50248158   0.69848542    6897.8836    7717.3633    14615.247    13886.983 
   37300        186.5    0.5126134   0.58407759    6847.1289    7872.9728    14720.102    13888.422 
   37400          187   0.50337797   0.61137095    6878.0229    7731.1306    14609.154    13889.861 
   37500        187.5     0.503755   0.67764363     6971.661    7736.9212    14708.582    13891.299 
   37600          188   0.50634847   0.73016596    6957.3728    7776.7529    14734.126    13892.736 
   37700        188.5   0.51090312   0.59211255    6907.0961    7846.7056    14753.802    13894.173 
   37800          189   0.50208663   0.64861896    6937.6905    7711.2976    14648.988    13895.609 
   37900        189.5   0.49784267   0.65487684    6912.0929    7646.1166     14558.21    13897.045 
   38000          190   0.50605997   0.65343977    6879.8925     7772.322    14652.214    13898.481 
   38100        190.5   0.49999391   0.69221876    6956.5762    7679.1564    14635.733    13899.916 
   38200          191   0.50764895   0.61431879    6808.5806    7796.7264    14605.307    13901.351 
   38300        191.5   0.50173522   0.55848054    6891.2119    7705.9004    14597.112    13902.785 
   38400          192   0.50308514   0.63714068    6989.3369    7726.6331     14715.97    13904.218 
   38500        192.5   0.50237485   0.65096077    6927.9362    7715.7242     14643.66    13905.652 
   38600          193   0.50166321    0.7045196    6894.9139    7704.7945    14599.708    13907.085 
   38700        193.5   0.50617938   0.72235944    6819.8314    7774.1559    14593.987    13908.518 
   38800          194   0.50676743   0.69431922     6867.498    7783.1876    14650.686    13909.951 
   38900        194.5   0.50654009   0.67542392    6892.4138    7779.6959     14672.11    13911.384 
   39000          195   0.51029012    0.5914877    6836.1691    7837.2908     14673.46    13912.817 
   39100        195.5   0.50309041   0.60430096     6797.056    7726.7141     14523.77    13914.249 
   39200          196   0.49767727   0.66343022    6828.7494    7643.5763    14472.326     13915.68 
   39300        196.5   0.50161699   0.64350917    6739.3085    7704.0846    14443.393    13917.111 
   39400          197   0.49421863   0.62755273    6855.0679    7590.4568    14445.525    13918.542 
   39500        197.5   0.49978094   0.68990051    6831.5336    7675.8856    14507.419    13919.973 
   39600          198    0.5000589   0.66843298     6846.991    7680.1546    14527.146    13921.404 
   39700        198.5   0.50012717   0.58124463    6841.7969    7681.2032        14523    13922.834 
   39800          199   0.50080457   0.66270521    6886.4103     7691.607    14578.017    13924.265 
   39900        199.5   0.49864007   0.62958971    6825.3907    7658.3635    14483.754    13925.696 
   40000          200   0.49283728   0.69342721    6904.3429    7569.2414    14473.584    13927.126 
   40100        200.5   0.50044674   0.67541677    6918.0874    7686.1113    14604.199    13928.556 
   40200          201   0.49722231   0.68700545     6855.577    7636.5888    14492.166    13929.986 
   40300        201.5   0.49729256   0.54212126    6958.6614    7637.6678    14596.329    13931.415 
   40400          202   0.50066176   0.64210815    6849.3383    7689.4137    14538.752    13932.845 
   40500        202.5   0.49289703    0.6408641    6801.4525    7570.1591    14371.612    13934.275 
   40600          203   0.49609237   0.60211279    6776.8646    7619.2346    14396.099    13935.704 
   40700        203.5   0.50108669   0.60919527     6750.841    7695.9399    14446.781    13937.134 
   40800          204   0.49324084   0.66434714    6834.5911    7575.4394    14410.031    13938.563 
   40900        204.5   0.49733478   0.59596271    6791.4216    7638.3162    14429.738    13939.992 
   41000          205   0.50507458   0.65479968    6697.8449     7757.188    14455.033    13941.422 
   41100        205.5   0.50160782   0.69448484    6908.0289    7703.9437    14611.973    13942.852 
   41200          206   0.50148383   0.68877239    6922.3185    7702.0395    14624.358    13944.283 
   41300        206.5   0.50356522    0.6770708    6894.3391    7734.0064    14628.345    13945.715 
   41400          207   0.50205463   0.66845758    6953.1088     7710.806    14663.915    13947.147 
   41500        207.5   0.50604356   0.62115594    6881.8531      7772.07    14653.923     13948.58 
   41600          208   0.50006432   0.67732951    6883.1921    7680.2379     14563.43    13950.013 
   41700        208.5   0.50163367   0.60452957    6790.5231    7704.3407    14494.864    13951.447 
   41800          209   0.49373979   0.66516297     6979.702    7583.1026    14562.805    13952.881 
   41900        209.5   0.50361095   0.65032565    6832.2268    7734.7088    14566.936    13954.316 
   42000          210    0.4981135   0.71018599    6971.5124    7650.2762    14621.789    13955.752 
   42100        210.5   0.49730664    0.6654717    6929.1917    7637.8841    14567.076    13957.188 
   42200          211   0.50269464   0.56742764    6831.9943    7720.6356     14552.63    13958.625 
   42300        211.5    0.4994926   0.64306134    6809.2198    7671.4572    14480.677    13960.062 
   42400          212    0.4921584   0.63540317    6962.4326    7558.8149    14521.247      13961.5 
   42500        212.5   0.50066211   0.59249198    6916.6771     7689.419    14606.096    13962.938 
   42600          213   0.50157961   0.62956761    6813.8532    7703.5104    14517.364    13964.376 
   42700        213.5   0.49683513   0.63422707    6812.0311    7630.6423    14442.673    13965.816 
   42800          214   0.49636756   0.66232923    6769.2218    7623.4612    14392.683    13967.255 
   42900        214.5   0.50233737   0.75733862    6863.8085    7715.1485    14578.957    13968.695 
   43000          215    0.5045507   0.63760076    6836.7044    7749.1419    14585.846    13970.136 
   43100        215.5   0.49726898   0.61803201    6813.3943    7637.3056      14450.7    13971.577 
   43200          216    0.4992093   0.57689018    6797.9744     7667.106     14465.08    13973.019 
   43300        216.5   0.50014297   0.73693942    6888.8491    7681.4458    14570.295    13974.462 
   43400          217   0.49565052   0.67213549    6922.3385    7612.4486    14534.787    13975.905 
   43500        217.5   0.49728597   0.61589581    6924.5996    7637.5666    14562.166    13977.349 
   43600          218   0.49934833   0.68580966    6887.1273    7669.2414    14556.369    13978.793 
   43700        218.5   0.49417706    0.6746636    6787.1619    7589.8184     14376.98    13980.239 
   43800          219   0.49156947    0.6714734    6872.7159    7549.7696    14422.486    13981.684 
   43900        219.5   0.49348205   0.55905993    6724.5494     7579.144    14303.693    13983.131 
   44000          220   0.49480388   0.62803829    6786.4626    7599.4454    14385.908    13984.578 
   44100        220.5   0.49672186   0.67773177    6796.5155    7628.9026    14425.418    13986.025 
   44200          221   0.50061688    0.6657799    6715.8644    7688.7243    14404.589    13987.473 
   44300        221.5   0.49621397   0.55621264    6812.0087    7621.1022    14433.111    13988.922 
   44400          222    0.4941183   0.52551725    6745.5831    7588.9159    14334.499    13990.371 
   44500        222.5   0.50283041   0.56878972      6773.59    7722.7209    14496.311    13991.821 
   44600          223    0.4997771   0.65487157    6875.0273    7675.8266    14550.854    13993.271 
   44700        223.5   0.49336123   0.61648396    6787.8119    7577.2884      14365.1    13994.722 
   44800          224   0.49498978     0.709268    6842.0578    7602.3005    14444.358    13996.174 
   44900        224.5   0.49640042   0.62388508    6845.1322    7623.9659    14469.098    13997.627 
   45000          225   0.50361524   0.58514974    6815.6616    7734.7746    14550.436     13999.08 
   45100        225.5    0.4972813    0.6819658    6890.4006    7637.4949    14527.895    14000.534 
   45200          226   0.49505852   0.62605489    6834.5338    7603.3563     14437.89    14001.989 
   45300        226.5     0.501102   0.67430287    6765.3357    7696.1751    14461.511    14003.444 
   45400          227   0.50142175   0.67529981    6776.9694    7701.0859    14478.055      14004.9 
   45500        227.5   0.49826745   0.65309358    6851.8213    7652.6407    14504.462    14006.356 
   45600          228   0.49809709   0.59963505    6844.6008    7650.0242    14494.625    14007.812 
   45700        228.5    0.4972614   0.50982342    6797.6707    7637.1893     14434.86    14009.269 
   45800          229   0.49593489   0.59389461    6949.2425     7616.816    14566.058    14010.727 
   45900        229.5   0.50239484   0.64174246    6882.1674    7716.0311    14598.199    14012.184 
   46000          230   0.50455562   0.67209355    6847.2931    7749.2175    14596.511    14013.643 
   46100        230.5   0.49586198   0.63982973    6829.4467    7615.6963    14445.143    14015.103 
   46200          231   0.49355411   0.70223408    6802.7981    7580.2508    14383.049    14016.563 
   46300        231.5   0.49865538     0.647285    6828.9033    7658.5987    14487.502    14018.024 
   46400          232   0.49996293   0.67061132    6802.1205    7678.6806    14480.801    14019.486 
   46500        232.5   0.49425769   0.59674554    6833.3173    7591.0567    14424.374    14020.949 
   46600          233   0.49517704   0.60531801    6756.6568    7605.1765    14361.833    14022.413 
   46700        233.5   0.49279688   0.65884514    6746.2557    7568.6209    14314.877    14023.878 
   46800          234   0.49442474   0.67434748    6815.1446    7593.6224    14408.767    14025.343 
   46900        234.5   0.49881734   0.64519662    6785.5987    7661.0861    14446.685    14026.808 
   47000          235   0.49613516   0.70745328    6890.0173    7619.8918    14509.909    14028.274 
   47100        235.5   0.49875085   0.58034115    6825.4405    7660.0649    14485.505    14029.741 
   47200          236   0.50414951   0.66865611    6739.5894    7742.9803     14482.57    14031.209 
   47300        236.5    0.4946103   0.66596872    6937.5643    7596.4723    14534.037    14032.677 
   47400          237   0.49934262   0.65250294    6916.6978    7669.1537    14585.851    14034.146 
   47500        237.5   0.50546749   0.63540675    6795.5731    7763.2224    14558.796    14035.617 
   47600          238   0.50339821   0.63382492    6900.8434    7731.4414    14632.285    14037.089 
   47700        238.5   0.50181178   0.72667561    6979.1535    7707.0763     14686.23    14038.561 
   47800          239   0.50214509   0.65757838    6797.2687    7712.1953    14509.464    14040.035 
   47900        239.5   0.50037469   0.59881502    6887.5768    7685.0047    14572.581    14041.509 
   48000          240   0.50024946   0.53891533    6981.3903    7683.0813    14664.472    14042.984 
   48100        240.5   0.49930358   0.61396004     6955.204     7668.554    14623.758    14044.459 
   48200          241   0.50058955    0.6111315     6885.497    7688.3045    14573.802    14045.934 
   48300        241.5   0.50483002   0.53093944    6828.3731    7753.4319    14581.805    14047.411 
   48400          242   0.49713472   0.61328291     6910.257    7635.2436    14545.501    14048.888 
   48500        242.5   0.50333556    0.7109469    6821.2301    7730.4792    14551.709    14050.365 
   48600          243   0.49712219   0.70499424    6780.4331    7635.0512    14415.484    14051.843 
   48700        243.5   0.49987478   0.60950128     6826.653    7677.3269     14503.98    14053.322 
   48800          244   0.49837103    0.5287004    6771.4786    7654.2314     14425.71    14054.801 
   48900        244.5   0.49683291   0.64415216    6860.3395    7630.6083    14490.948    14056.281 
   49000          245   0.49992038    0.5984307    6856.1752    7678.0271    14534.202    14057.762 
   49100        245.5   0.49917047   0.55034071    6955.7171    7666.5096    14622.227    14059.243 
   49200          246    0.5012753   0.62608194    6835.8183    7698.8367    14534.655    14060.725 
   49300        246.5   0.50531419   0.67460773    6998.1259    7760.8679    14758.994    14062.207 
   49400          247   0.50405487   0.64130943    7016.7094    7741.5267    14758.236     14063.69 
   49500        247.5   0.49508226   0.65910332    6919.8384    7603.7209    14523.559    14065.173 
   49600          248   0.49998269   0.64378118    6884.4208    7678.9841    14563.405    14066.657 
   49700        248.5   0.49873259   0.66648223    6842.9031    7659.7845    14502.688    14068.142 
   49800          249   0.49971826   0.69176103    6817.7297    7674.9228    14492.652    14069.628 
   49900        249.5   0.49983758   0.65213682    6822.4754    7676.7554    14499.231    14071.114 
   50000          250   0.49472111   0.64798524    6821.1852    7598.1742    14419.359      14072.6 
   50100        250.5   0.50214452   0.56146011    6814.1389    7712.1866    14526.326    14074.088 
   50200          251   0.49951065   0.59477668    6856.1691    7671.7344    14527.903    14075.575 
   50300        251.5   0.49752318    0.6069106    6879.4876    7641.2098    14520.697    14077.063 
   50400          252   0.49809966   0.57417226    6845.7285    7650.0636    14495.792     14078.55 
   50500        252.5   0.49862556   0.58642625     6870.482    7658.1407    14528.623    14080.038 
   50600          253   0.49520867    0.6109234    6881.3211    7605.6623    14486.983    14081.525 
   50700        253.5   0.50081388   0.64314709    6817.5812      7691.75    14509.331    14083.013 
   50800          254    0.5004172   0.65372309    6784.6007    7685.6576    14470.258    14084.501 
   50900        254.5   0.50038705   0.63436718    6823.2924    7685.1944    14508.487     14085.99 
   51000          255   0.49961181   0.59879325    6805.0057     7673.288    14478.294    14087.478 
   51100        255.5    0.5005347   0.65297442    6876.8604    7687.4621    14564.323    14088.966 
   51200          256   0.49868916   0.60389422    6877.3196    7659.1175    14536.437    14090.455 
   51300        256.5   0.50152917   0.58516445    6868.4562    7702.7358    14571.192    14091.944 
   51400          257   0.50527541   0.55791333    6894.5704    7760.2724    14654.843    14093.433 
   51500        257.5   0.49863571   0.58723393    6951.2235    7658.2966     14609.52    14094.923 
   51600          258   0.49763828   0.70186467    6862.9459    7642.9775    14505.923    14096.412 
   51700        258.5   0.50346238   0.61125503     6834.104     7732.427    14566.531    14097.903 
   51800          259   0.50160082   0.59278262    6951.5867    7703.8362    14655.423    14099.393 
   51900        259.5   0.49602335   0.54998567     6872.971    7618.1747    14491.146    14100.883 
   52000          260   0.50239861   0.51575926    6764.0378     7716.089    14480.127    14102.373 
   52100        260.5   0.50137128   0.64009973    6724.0028    7700.3108    14424.314    14103.863 
   52200          261    0.5040645   0.60790692     6800.049    7741.6746    14541.724    14105.353 
   52300        261.5   0.50183287   0.60799681    6903.6331    7707.4002    14611.033    14106.843 
   52400          262   0.51187711   0.64102184    6721.7792    7861.6645    14583.444    14108.333 
   52500        262.5   0.50014047   0.66462374     6768.828    7681.4075    14450.235    14109.823 
   52600          263    0.5035386   0.62235323    6745.1699    7733.5976    14478.768    14111.313 
   52700        263.5   0.49987513   0.61414404    6873.4167    7677.3322    14550.749    14112.804 
   52800          264   0.49974705   0.50941523    6906.3328     7675.365    14581.698    14114.294 
   52900        264.5   0.50174407   0.62330017    6819.4622    7706.0363    14525.499    14115.784 
   53000          265   0.49152177   0.60853295    6840.8914     7549.037    14389.928    14117.274 
   53100        265.5   0.49702128   0.61553909    6715.6724    7633.5013    14349.174    14118.764 
   53200          266   0.49953256   0.58904572    6724.5899    7672.0708    14396.661    14120.254 
   53300        266.5   0.49790744    0.5822923     6794.949    7647.1115     14442.06    14121.743 
   53400          267   0.49672329   0.65666412    6798.9237    7628.9246    14427.848    14123.233 
   53500        267.5   0.49557184   0.71067813     6945.603    7611.2401    14556.843    14124.723 
   53600          268   0.50029168   0.64608311     6779.166    7683.7297    14462.896    14126.213 
   53700        268.5   0.50194815   0.58611189    6771.2695    7709.1706     14480.44    14127.704 
   53800          269   0.50479821   0.62368721    6797.1473    7752.9433    14550.091    14129.194 
   53900        269.5   0.50096536   0.62623498    6844.4172    7694.0765    14538.494    14130.685 
   54000          270    0.4971653   0.63145458    6836.6716    7635.7132    14472.385    14132.175 
   54100        270.5    0.4918453   0.58674452    6845.2575     7554.006    14399.264    14133.666 
   54200          271    0.4963031   0.63066809    6790.5069    7622.4711    14412.978    14135.157 
   54300        271.5   0.49830225   0.57905819    6748.3064     7653.175    14401.481    14136.648 
   54400          272   0.49595115   0.56691777     6765.295    7617.0658    14382.361    14138.138 
   54500        272.5   0.49459249   0.67194082     6813.337    7596.1987    14409.536    14139.628 
   54600          273   0.50127501   0.60517689    6786.8541    7698.8323    14485.686    14141.119 
   54700        273.5   0.49986146   0.64584322    6921.4177    7677.1223     14598.54    14142.609 
   54800          274   0.49703367   0.73326257    6866.6086    7633.6916      14500.3    14144.099 
   54900        274.5   0.50075651   0.56900412    6796.0966    7690.8688    14486.965     14145.59 
   55000          275   0.50145044    0.5671364    6808.6801    7701.5266    14510.207    14147.081 
   55100        275.5   0.49539402    0.5550884    6945.2709    7608.5091     14553.78    14148.572 
   55200          276   0.50179105     0.627293    6851.2579    7706.7578    14558.016    14150.062 
   55300        276.5   0.50775124   0.60322903    6811.6348    7798.2974    14609.932    14151.552 
   55400          277   0.50104095   0.58693027    6826.9686    7695.2374    14522.206    14153.043 
   55500        277.5   0.50206765   0.70980531    6866.1053     7711.006    14577.111    14154.533 
   55600          278   0.49680986   0.65122709    6851.0419    7630.2543    14481.296    14156.023 
   55700        278.5   0.50196494   0.64193317    6706.6413    7709.4285     14416.07    14157.513 
   55800          279   0.49853164    0.5994696    6732.0114    7656.6982     14388.71    14159.003 
   55900        279.5   0.49461687   0.57336826    6866.8723    7596.5732    14463.445    14160.492 
   56000          280   0.49179312   0.59788034    6866.5518    7553.2046    14419.756    14161.982 
   56100        280.5   0.49831526   0.64916667    6832.9739     7653.375    14486.349    14163.471 
   56200          281   0.49511874   0.56229502    6867.7215    7604.2811    14472.003     14164.96 
   56300        281.5   0.50554187   0.66408615     6828.435    7764.3647      14592.8    14166.448 
   56400          282   0.49735023   0.68247305    6874.1911    7638.5535    14512.745    14167.936 
   56500        282.5   0.50014648   0.60251712    6851.1196    7681.4997    14532.619    14169.423 
   56600          283   0.50260096   0.62775789    6807.0926    7719.1969    14526.289     14170.91 
   56700        283.5   0.49953638    0.6432264    6774.3891    7672.1294    14446.519    14172.396 
   56800          284   0.49715862   0.61963462    6852.0757    7635.6107    14487.686    14173.882 
   56900        284.5    0.4955436   0.65857211    6899.6318    7610.8063    14510.438    14175.368 
   57000          285   0.49457765   0.57838145    6947.4354    7595.9708    14543.406    14176.854 
   57100        285.5   0.50355179   0.64015714    6824.9818    7733.8002    14558.782     14178.34 
   57200          286   0.50310126   0.65403263    6830.0767    7726.8807    14556.957    14179.825 
   57300        286.5   0.49690985   0.62525537    6847.7522    7631.7899    14479.542    14181.309 
   57400          287   0.50005679   0.59625681    6856.8878    7680.1222     14537.01    14182.794 
   57500        287.5   0.49955102    0.6447314    6820.8602    7672.3544    14493.215    14184.278 
   57600          288   0.50187507   0.61460488    6840.7878    7708.0483    14548.836    14185.761 
   57700        288.5   0.50654433   0.46173261    6805.2553     7779.761    14585.016    14187.244 
   57800          289    0.5095282   0.57278232    6760.2599    7825.5889    14585.849    14188.725 
   57900        289.5   0.50314575   0.53423354    6836.6952    7727.5639    14564.259    14190.207 
   58000          290   0.50369118   0.55418799    6841.7595     7735.941      14577.7    14191.687 
   58100        290.5    0.5022689   0.65753576    6795.7915    7714.0968    14509.888    14193.167 
   58200          291   0.50020951   0.60550193    6892.4298    7682.4678    14574.898    14194.646 
   58300        291.5   0.49744407   0.61100397    6927.9379    7639.9947    14567.933    14196.125 
   58400          292   0.49308419   0.70172564     6810.679    7573.0335    14383.713    14197.604 
   58500        292.5   0.50465143   0.61206599     6760.563     7750.689    14511.252    14199.082 
   58600          293   0.50055255   0.65926813    6763.9846    7687.7364    14451.721    14200.559 
   58700        293.5   0.49100584   0.56609753    6844.4577    7541.1132    14385.571    14202.036 
   58800          294   0.49903704   0.62406679    6839.5575    7664.4603    14504.018    14203.512 
   58900        294.5   0.49715199   0.61565618    6766.2458    7635.5088    14401.755    14204.988 
   59000          295   0.49922274   0.58221756    6800.2376    7667.3124     14467.55    14206.463 
   59100        295.5   0.49899443   0.56643244    6796.0728     7663.806    14459.879    14207.936 
   59200          296   0.49482608   0.63161018    6839.8121    7599.7864    14439.598    14209.409 
   59300        296.5   0.49535907    0.5825549    6806.3504    7607.9722    14414.323    14210.881 
   59400          297   0.50026823   0.60553892     6864.566    7683.3696    14547.936    14212.352 
   59500        297.5   0.49901067     0.659929    6836.0104    7664.0553    14500.066    14213.823 
   59600          298   0.50044688   0.62765736    6793.4768    7686.1135     14479.59    14215.293 
   59700        298.5   0.50030881   0.60947101    6815.0101    7683.9929    14499.003    14216.763 
   59800          299   0.50001056   0.49173319     6775.766    7679.4122    14455.178    14218.232 
   59900        299.5   0.49669345   0.60711758    6787.1198    7628.4664    14415.586      14219.7 
   60000          300   0.49545833   0.60050654    6751.6801    7609.4967    14361.177    14221.166 
   60100        300.5   0.49144482    0.6493981    6765.7319    7547.8552    14313.587    14222.632 
   60200          301   0.49826958   0.68256652    6725.7145    7652.6733    14378.388    14224.097 
   60300        301.5   0.49930261   0.61463914    6798.0232    7668.5391    14466.562    14225.562 
   60400          302   0.50312184   0.53480044    6839.5113    7727.1968    14566.708    14227.025 
   60500        302.5   0.50154783   0.61466469    6885.3214    7703.0224    14588.344    14228.486 
   60600          303   0.50238177   0.61077581    6922.1556    7715.8305    14637.986    14229.947 
   60700        303.5   0.50416225   0.57094684    6870.4146    7743.1759    14613.591    14231.408 
   60800          304   0.49877837   0.59013706    6791.5022    7660.4876     14451.99    14232.867 
   60900        304.5   0.49855706   0.63286802     6811.252    7657.0887    14468.341    14234.326 
   61000          305   0.49338579   0.55771174    6857.6275    7577.6657    14435.293    14235.784 
   61100        305.5   0.50284135   0.62178965    6834.4291    7722.8888    14557.318    14237.242 
   61200          306   0.50455484   0.65274737    6854.6188    7749.2054    14603.824    14238.699 
   61300        306.5    0.4991255   0.63644685    6820.1602     7665.819    14485.979    14240.155 
   61400          307   0.49285691     0.608052    6857.6048    7569.5429    14427.148    14241.611 
   61500        307.5   0.50168697   0.61606554    6793.9219    7705.1593    14499.081    14243.066 
   61600          308   0.50446608   0.65933826    6809.3104    7747.8424    14557.153     14244.52 
   61700        308.5   0.50207349    0.5818312    6898.4114    7711.0957    14609.507    14245.975 
   61800          309   0.50169684   0.51266588    6904.6666     7705.311    14609.978    14247.428 
   61900        309.5    0.4958675   0.55284713    6947.9551     7615.781    14563.736     14248.88 
   62000          310   0.50039192   0.64611563    6851.3908    7685.2693     14536.66     14250.33 
   62100        310.5   0.50402113    0.6104106    6793.7763    7741.0086    14534.785     14251.78 
   62200          311   0.50140175   0.49607772    6926.4265    7700.7788    14627.205    14253.228 
   62300        311.5    0.4925838   0.51807199    6925.9196    7565.3482    14491.268    14254.675 
   62400          312   0.49470395   0.47838553     6789.944    7597.9106    14387.855     14256.12 
   62500        312.5   0.49105806   0.60648626    6850.4806    7541.9153    14392.396    14257.564 
   62600          313   0.49935278   0.58768025    6800.8402    7669.3096     14470.15    14259.008 
   62700        313.5   0.50126611   0.61410743    6722.5873    7698.6956    14421.283     14260.45 
   62800          314   0.49465741    0.6163693    6864.4193    7597.1958    14461.615    14261.892 
   62900        314.5   0.49773206   0.63134717    6820.9806    7644.4178    14465.398    14263.333 
   63000          315   0.50457833   0.60894586    6852.8735    7749.5663     14602.44    14264.772 
   63100        315.5   0.50933328   0.56382482    6863.4113    7822.5951    14686.006    14266.211 
   63200          316   0.50211841    0.5701517    6843.2568    7711.7856    14555.042    14267.649 
   63300        316.5   0.49694906   0.54075595    6869.9519    7632.3922    14502.344    14269.085 
   63400          317    0.4968369   0.52985116    6856.6916    7630.6695    14487.361     14270.52 
   63500        317.5   0.49618891   0.60647419     6834.809    7620.7174    14455.526    14271.954 
   63600          318   0.49982374   0.72002384    6859.5267    7676.5429     14536.07    14273.386 
   63700        318.5   0.50473901   0.69422814    6777.8009    7752.0341    14529.835    14274.817 
   63800          319   0.49901372    0.5878337    6885.2602    7664.1022    14549.362    14276.248 
   63900        319.5   0.49871418   0.56370023    6787.6732    7659.5018    14447.175    14277.677 
   64000          320   0.49944447   0.53935666     6853.599    7670.7178    14524.317    14279.105 
   64100        320.5   0.50451758   0.59805317     6838.645    7748.6332    14587.278    14280.531 
   64200          321   0.50930191   0.52365667    6870.5825    7822.1134    14692.696    14281.957 
   64300        321.5   0.50119796   0.61970514    6821.8284    7697.6489    14519.477    14283.382 
   64400          322    0.4980386   0.58714794    6830.2143    7649.1259     14479.34    14284.806 
   64500        322.5   0.49728892   0.56780944    6865.2343    7637.6118    14502.846    14286.228 
   64600          323   0.50222382   0.53927928    6785.6144    7713.4045    14499.019     14287.65 
   64700        323.5   0.49918271   0.56487762    6889.1885    7666.6976    14555.886     14289.07 
   64800          324   0.50197522   0.61816128     6913.667    7709.5864    14623.253    14290.489 
   64900        324.5     0.501611   0.58301134    6835.0793    7703.9925    14539.072    14291.908 
   65000          325   0.49648108   0.54270939    6883.6421    7625.2047    14508.847    14293.325 
   65100        325.5   0.49053625   0.56420424    6886.8395    7533.9009     14420.74    14294.741 
   65200          326   0.50324734     0.599968    6744.1929    7729.1243    14473.317    14296.156 
   65300        326.5   0.49237722   0.56580009    6859.3677    7562.1756    14421.543    14297.569 
   65400          327   0.49530716   0.56131342    6791.4615     7607.175    14398.637    14298.981 
   65500        327.5     0.498716   0.65560894    6826.5863    7659.5296    14486.116    14300.392 
   65600          328   0.49767219   0.61878665    6856.0886    7643.4983    14499.587    14301.802 
   65700        328.5   0.50135058   0.59588858    6825.5901    7699.9928    14525.583    14303.211 
   65800          329   0.49905896   0.57741816    6942.4196     7664.797    14607.217    14304.619 
   65900        329.5    0.5038037   0.56274951    6830.9784    7737.6692    14568.648    14306.026 
   66000          330   0.50408339   0.53698455    6939.2793    7741.9648    14681.244    14307.431 
   66100        330.5   0.50548259   0.60344233    6919.6418    7763.4543    14683.096    14308.836 
   66200          331   0.50203047   0.62538061    6908.9906     7710.435    14619.426    14310.239 
   66300        331.5   0.50512325   0.64757872    6849.9362    7757.9354    14607.872    14311.641 
   66400          332   0.50410665   0.63323077    6852.7097     7742.322    14595.032    14313.042 
   66500        332.5   0.50299412   0.53269589    6801.6904    7725.2352    14526.926    14314.442 
   66600          333   0.50106736   0.52137773    6828.0913     7695.643    14523.734     14315.84 
   66700        333.5   0.49999188   0.59745479    6925.3926    7679.1253    14604.518    14317.237 
   66800          334   0.49971319   0.60077904    6809.5635     7674.845    14484.409    14318.633 
   66900        334.5   0.49936714   0.63264229    6847.3752    7669.5302    14516.905    14320.029 
   67000          335    0.4959689   0.64108827    6893.0798    7617.3383    14510.418    14321.423 
   67100        335.5    0.4949145   0.58810597    6823.0622    7601.1444    14424.207    14322.816 
   67200          336   0.49341322    0.6234467    6824.3135     7578.087      14402.4    14324.208 
   67300        336.5   0.49943086   0.57026199    6762.9657    7670.5089    14433.475    14325.599 
   67400          337   0.49396636   0.55332598    6737.4585    7586.5823    14324.041     14326.99 
   67500        337.5    0.4957508   0.54650256    6779.5364    7613.9887    14393.525    14328.379 
   67600          338   0.49774315   0.60911913    6806.7857    7644.5881    14451.374    14329.767 
   67700        338.5   0.49470211   0.59566216    6798.1137    7597.8823    14395.996    14331.154 
   67800          339   0.49924963   0.70464903    6852.8947    7667.7254     14520.62    14332.539 
   67900        339.5    0.4989913   0.64123008    6921.5673    7663.7579    14585.325    14333.924 
   68000          340   0.50092755   0.59048281    6848.4387    7693.4958    14541.935    14335.308 
   68100        340.5   0.49672034   0.60443026    6702.4105    7628.8793     14331.29    14336.691 
   68200          341   0.50533891   0.67061258    6734.0017    7761.2476    14495.249    14338.074 
   68300        341.5   0.49922505   0.60834539    6702.8771    7667.3479    14370.225    14339.456 
   68400          342   0.49961384   0.53239026     6805.793    7673.3192    14479.112    14340.836 
   68500        342.5   0.49698391   0.55118648    6814.0245    7632.9273    14446.952    14342.215 
   68600          343    0.5032577   0.57167857    6888.5814    7729.2834    14617.865    14343.593 
   68700        343.5   0.50256403   0.48884189    6879.3083    7718.6297    14597.938    14344.969 
   68800          344     0.497597   0.54715911    6942.0918    7642.3436    14584.435    14346.344 
   68900        344.5   0.50356164    0.6004741    6833.5397    7733.9514    14567.491    14347.718 
   69000          345     0.500865   0.72329598     6838.413    7692.5352    14530.948    14349.091 
   69100        345.5   0.50229088   0.63526611    6859.4974    7714.4345    14573.932    14350.463 
   69200          346   0.49897706   0.56679742    6811.6289    7663.5391    14475.168    14351.835 
   69300        346.5   0.49661633   0.54851679    6843.4835    7627.2819    14470.765    14353.205 
   69400          347   0.49112567   0.52089605    6782.3579    7542.9536    14325.312    14354.575 
   69500        347.5   0.49410391   0.58903677    6801.1145    7588.6949    14389.809    14355.943 
   69600          348   0.50122422   0.62525385    6815.3089    7698.0522    14513.361     14357.31 
   69700        348.5   0.50008734   0.63594883    6844.4389    7680.5914     14525.03    14358.676 
   69800          349   0.49990214   0.58273535    6859.1158     7677.747    14536.863    14360.041 
   69900        349.5   0.49789042   0.48927997    6915.7012      7646.85    14562.551    14361.405 
   70000          350   0.49598329   0.50907344     6801.355    7617.5594    14418.914    14362.767 
   70100        350.5   0.49984989   0.56115485    6900.0785    7676.9446    14577.023    14364.128 
   70200          351    0.5000531   0.66643904    6952.3596    7680.0655    14632.425    14365.488 
   70300        351.5   0.50621249   0.61147443    6914.3093    7774.6645    14688.974    14366.847 
   70400          352   0.50453605   0.54317768    6870.3927     7748.917     14619.31    14368.205 
   70500        352.5   0.50880032   0.54625771    6870.4994    7814.4098    14684.909    14369.561 
   70600          353   0.49901817    0.5730002    7000.6606    7664.1706    14664.831    14370.916 
   70700        353.5   0.50642269   0.71682641      6906.52    7777.8929    14684.413     14372.27 
   70800          354   0.50455186   0.62237995    6947.1073    7749.1598    14696.267    14373.624 
   70900        354.5   0.50372053   0.61279718    6996.4115    7736.3918    14732.803    14374.977 
   71000          355   0.49758427   0.54391227    6827.2406    7642.1479    14469.389     14376.33 
   71100        355.5   0.49485816   0.59804176    6831.0467     7600.279    14431.326    14377.682 
   71200          356   0.50401538   0.56948847    6761.9876    7740.9202    14502.908    14379.032 
   71300        356.5   0.49308386   0.59989584    6924.1976    7573.0285    14497.226    14380.381 
   71400          357   0.50151806   0.55223403    6796.3808    7702.5651    14498.946     14381.73 
   71500        357.5   0.49917312   0.57703208    6829.0993    7666.5504     14495.65    14383.077 
   71600          358   0.49302077   0.64724232    6968.1102    7572.0595     14540.17    14384.423 
   71700        358.5   0.49341498   0.64151507    6907.4438     7578.114    14485.558    14385.768 
   71800          359   0.49762338   0.56648619    6798.6507    7642.7487    14441.399    14387.113 
   71900        359.5   0.50208097   0.53704815    6869.8516    7711.2105    14581.062    14388.457 
   72000          360   0.50211356   0.57593908    6929.1477    7711.7111    14640.859      14389.8 
   72100        360.5   0.50419162   0.61285358    6836.1777     7743.627    14579.805    14391.142 
   72200          361   0.49994727   0.59390672    6861.2684    7678.4402    14539.709    14392.483 
   72300        361.5   0.49549821   0.67038031    6859.8339    7610.1093    14469.943    14393.822 
   72400          362   0.49846529    0.5007583     6862.202    7655.6791    14517.881     14395.16 
   72500        362.5   0.49709105   0.53015208    6813.0954    7634.5729    14447.668    14396.497 
   72600          363   0.49427312   0.59267485    6867.3197    7591.2938    14458.613    14397.833 
   72700        363.5    0.4955828   0.62165168    6838.6745    7611.4085    14450.083    14399.168 
   72800          364   0.50000772   0.51639277    6840.5755    7679.3685    14519.944    14400.503 
   72900        364.5   0.49142786   0.61150117    6814.8454    7547.5947     14362.44    14401.836 
   73000          365   0.49441149    0.6635558    6826.3851    7593.4188    14419.804    14403.168 
   73100        365.5   0.49975111   0.55663427      6744.45    7675.4274    14419.877    14404.499 
   73200          366   0.49952801   0.52346029    6767.2402     7672.001    14439.241     14405.83 
   73300        366.5   0.49520874   0.56702025    6879.6013    7605.6635    14485.265    14407.159 
   73400          367   0.49893566   0.53699622    6823.1792    7662.9034    14486.083    14408.488 
   73500        367.5   0.49131595   0.58998548     6801.303     7545.876    14347.179    14409.815 
   73600          368   0.49602464   0.51847252    6752.7019    7618.1944    14370.896    14411.141 
   73700        368.5   0.49919178   0.54268735    6853.3832     7666.837     14520.22    14412.465 
   73800          369   0.49663128   0.61434701    6817.3319    7627.5115    14444.843    14413.789 
   73900        369.5   0.49581023   0.56856442    6891.3878    7614.9014    14506.289    14415.111 
   74000          370   0.49473526   0.60725066    6851.3127    7598.3915    14449.704    14416.432 
   74100        370.5   0.49837756   0.61174141    6733.4026    7654.3317    14387.734    14417.752 
   74200          371   0.49819694    0.5082374     6858.031    7651.5577    14509.589    14419.071 
   74300        371.5   0.49532109   0.58971739     6869.422     7607.389    14476.811    14420.389 
   74400          372     0.499691   0.56964482    6908.0031    7674.5043    14582.507    14421.706 
   74500        372.5   0.49574272   0.62245847    6887.1206    7613.8646    14500.985    14423.023 
   74600          373   0.50497082   0.55537831    6749.0704    7755.5943    14504.665    14424.339 
   74700        373.5   0.50189917   0.59918203    6837.0969    7708.4183    14545.515    14425.654 
   74800          374   0.49773143   0.59130791    6814.3684    7644.4081    14458.777    14426.969 
   74900        374.5   0.50006318   0.52328274    6872.7353    7680.2203    14552.956    14428.283 
   75000          375    0.4989402   0.58359459    6872.9643    7662.9731    14535.937    14429.596 
Loop time of 280.256 on 1 procs for 75000 steps with 10240 atoms

Performance: 115608.703 tau/day, 267.613 timesteps/s
95.3% CPU use with 1 MPI tasks x 1 OpenMP threads

MPI task timing breakdown:
Section |  min time  |  avg time  |  max time  |%varavg| %total
---------------------------------------------------------------
Pair    | 39.83      | 39.83      | 39.83      |   0.0 | 14.21
Bond    | 84.026     | 84.026     | 84.026     |   0.0 | 29.98
Neigh   | 52.344     | 52.344     | 52.344     |   0.0 | 18.68
Comm    | 14.056     | 14.056     | 14.056     |   0.0 |  5.02
Output  | 5.6656     | 5.6656     | 5.6656     |   0.0 |  2.02
Modify  | 79.217     | 79.217     | 79.217     |   0.0 | 28.27
Other   |            | 5.117      |            |       |  1.83

Nlocal:    10240 ave 10240 max 10240 min
Histogram: 1 0 0 0 0 0 0 0 0 0
Nghost:    5795 ave 5795 max 5795 min
Histogram: 1 0 0 0 0 0 0 0 0 0
Neighs:    35283 ave 35283 max 35283 min
Histogram: 1 0 0 0 0 0 0 0 0 0

Total # of neighbors = 35283
Ave neighs/atom = 3.44561
Ave special neighs/atom = 4.8
Neighbor list builds = 6569
Dangerous builds = 1017

unfix 2
unfix 3
fix 4 all nve
fix 5 all langevin ${T} ${T} 1 123456
[...]
 1589100        195.5   0.50141258  0.060920366    6691.8271    7700.9451    14392.772    39836.655 
 1589200          196   0.50019415  0.047319291     6708.609    7682.2319    14390.841    39840.148 
 1589300        196.5   0.50367177  0.075896629     6688.438    7735.6429    14424.081    39843.637 
 1589400          197   0.49997125  0.063019622    6750.5217    7678.8085     14429.33    39847.124 
 1589500        197.5   0.50425205  0.054036144    6593.9996    7744.5551    14338.555    39850.606 
 1589600          198   0.49880375  0.034242057    6620.4864    7660.8774    14281.364    39854.083 
 1589700        198.5   0.49239701  0.083015477    6677.4953    7562.4794    14239.975    39857.556 
 1589800          199   0.50023423  0.075097576    6691.1747    7682.8474    14374.022    39861.024 
 1589900        199.5   0.50174426  0.086475075    6620.4955    7706.0392    14326.535    39864.487 
 1590000          200   0.49776753  0.050711198    6687.2988    7644.9626    14332.261    39867.946 
 1590100        200.5   0.50514087  0.052782982    6645.9071    7758.2061    14404.113      39871.4 
 1590200          201   0.49876214  0.064475661    6630.7384    7660.2384    14290.977    39874.849 
 1590300        201.5   0.50192286  0.086768421    6625.9484    7708.7823    14334.731    39878.293 
 1590400          202   0.50105801  0.064276452    6635.6391    7695.4994    14331.139    39881.732 
 1590500        202.5   0.50080068  0.062763334    6708.1569    7691.5472    14399.704    39885.167 
 1590600          203    0.5055055   0.07789049    6734.2927    7763.8062    14498.099    39888.598 
 1590700        203.5   0.50452641  0.068276412    6738.4856    7748.7688    14487.254    39892.027 
 1590800          204    0.4985821   0.08604727    6681.9641    7657.4732    14339.437    39895.451 
 1590900        204.5   0.50557971  0.079941738    6626.9518     7764.946    14391.898    39898.872 
 1591000          205   0.50292561  0.047276587    6753.3342     7724.183    14477.517    39902.288 
 1591100        205.5   0.50475062  0.017637401    6747.6016    7752.2124    14499.814      39905.7 
 1591200          206   0.50664768  0.079137402    6765.5367    7781.3484    14546.885    39909.108 
 1591300        206.5   0.50708232   0.10810415    6743.3358    7788.0238     14531.36    39912.511 
 1591400          207   0.50459973  0.060759157    6756.7007     7749.895    14506.596    39915.912 
 1591500        207.5    0.5010685  0.057836017    6686.8961    7695.6605    14382.557    39919.308 
 1591600          208    0.4986818  0.058011493    6753.7378    7659.0044    14412.742    39922.701 
 1591700        208.5   0.49372798  0.062233626    6710.5511    7582.9212    14293.472     39926.09 
 1591800          209    0.4978309  0.063713468     6782.098    7645.9359    14428.034    39929.474 
 1591900        209.5   0.50302767  0.059668029    6707.9983    7725.7505    14433.749    39932.854 
 1592000          210   0.49624843  0.057625256    6750.9332    7621.6315    14372.565     39936.23 
 1592100        210.5   0.50633555  0.073984589     6603.076    7776.5546    14379.631      39939.6 
 1592200          211   0.50133591  0.063216494    6716.7284    7699.7675    14416.496    39942.968 
 1592300        211.5   0.50221553  0.084052953    6723.5143    7713.2773    14436.792    39946.332 
 1592400          212   0.50069093  0.060577298    6802.3914    7689.8617    14492.253    39949.692 
 1592500        212.5   0.49937236  0.059512614    6671.2549    7669.6103    14340.865    39953.047 
 1592600          213   0.49792065  0.073261645    6709.0822    7647.3144    14356.397    39956.396 
 1592700        213.5   0.50838239  0.056490872    6694.9827     7807.991    14502.974     39959.74 
 1592800          214   0.50233623  0.040863029    6782.6299     7715.131    14497.761    39963.081 
 1592900        214.5    0.5067333  0.069266544    6783.4377    7782.6634    14566.101     39966.42 
 1593000          215   0.50630447  0.074611475     6682.477    7776.0772    14458.554    39969.755 
 1593100        215.5   0.49748395  0.065779749    6799.5343    7640.6072    14440.142    39973.085 
 1593200          216   0.50052206  0.054792122    6712.0685    7687.2681    14399.337    39976.412 
 1593300        216.5   0.50305892  0.088457076    6738.7048    7726.2305    14464.935    39979.733 
 1593400          217   0.49349338   0.10199558    6742.3257    7579.3181    14321.644     39983.05 
 1593500        217.5   0.49791563  0.034882318    6709.4602    7647.2372    14356.697    39986.363 
 1593600          218   0.49951665  0.069531661    6708.7164    7671.8264    14380.543    39989.669 
 1593700        218.5    0.4996723  0.054211097    6763.1924     7674.217    14437.409    39992.972 
 1593800          219   0.49868055  0.067916271    6669.9436    7658.9853    14328.929     39996.27 
 1593900        219.5   0.50225422  0.035725375    6683.9389    7713.8715     14397.81    39999.562 
 1594000          220   0.49895991  0.068396364    6751.7611    7663.2758    14415.037    40002.849 
 1594100        220.5   0.49539307  0.072813052    6712.8322    7608.4945    14321.327    40006.131 
 1594200          221   0.50295483  0.058411578    6680.4888    7724.6318    14405.121     40009.41 
 1594300        221.5   0.50206265  0.060589433    6746.9077    7710.9293    14457.837    40012.684 
 1594400          222   0.50754424  0.052332666    6748.7221    7795.1183     14543.84    40015.955 
 1594500        222.5   0.50461881  0.075959659    6876.5643     7750.188    14626.752    40019.224 
 1594600          223   0.50554181  0.066106017    6690.4583    7764.3639    14454.822     40022.49 
 1594700        223.5   0.49981925  0.075170106    6726.2964    7676.4739     14402.77    40025.753 
 1594800          224   0.50164271  0.040099457    6704.6058    7704.4796    14409.085    40029.012 
 1594900        224.5   0.50384214  0.080454519    6720.7401    7738.2594        14459    40032.266 
 1595000          225   0.49815169  0.070737524    6706.2572    7650.8627     14357.12    40035.517 
 1595100        225.5   0.49930968  0.047306549    6627.6038    7668.6477    14296.251    40038.765 
 1595200          226   0.50724305  0.064495109    6735.2689    7790.4924    14525.761    40042.009 
 1595300        226.5   0.50067355  0.072523287    6764.9935    7689.5948    14454.588     40045.25 
 1595400          227   0.49709074  0.072783556    6685.7805    7634.5681    14320.349    40048.488 
 1595500        227.5   0.49714233  0.049484803    6629.0982    7635.3605    14264.459    40051.724 
 1595600          228   0.49850859  0.097836654    6671.5357    7656.3442     14327.88    40054.955 
 1595700        228.5   0.49593976  0.029186896    6744.5606    7616.8908    14361.451    40058.185 
 1595800          229   0.49978162  0.070635279    6571.8498     7675.896    14247.746     40061.41 
 1595900        229.5   0.49542758  0.075740083     6601.501    7609.0245    14210.526    40064.633 
 1596000          230   0.49991239  0.064360466    6664.5505    7677.9044    14342.455    40067.852 
 1596100        230.5   0.50226986  0.041191453    6593.1251    7714.1116    14307.237    40071.068 
 1596200          231   0.49776926  0.090490087    6730.1117    7644.9892    14375.101    40074.279 
 1596300        231.5   0.49527347  0.088918605    6686.0474    7606.6577    14292.705    40077.487 
 1596400          232   0.49727237  0.067670713    6669.4004    7637.3578    14306.758    40080.692 
 1596500        232.5   0.49834127  0.055159655    6611.5289    7653.7744    14265.303    40083.895 
 1596600          233   0.48823386   0.10088937    6641.8035    7498.5397    14140.343    40087.094 
 1596700        233.5   0.49418043  0.064490545    6538.0138    7589.8701    14127.884     40090.29 
 1596800          234   0.50187171  0.074290712    6622.4751    7707.9967    14330.472    40093.483 
 1596900        234.5   0.49569957  0.027784336    6707.2425    7613.2019    14320.444    40096.673 
 1597000          235   0.50364181  0.039044243    6749.7214    7735.1828    14484.904     40099.86 
 1597100        235.5    0.4969254  0.083119689    6749.4194    7632.0288    14381.448    40103.043 
 1597200          236    0.4992111  0.080275287    6793.9285    7667.1337    14461.062    40106.224 
 1597300        236.5   0.49740385  0.044095169     6789.606     7639.377    14428.983    40109.402 
 1597400          237   0.49545335  0.034830991    6811.5606    7609.4203    14420.981    40112.578 
 1597500        237.5   0.49927289  0.065793602    6762.4884    7668.0828    14430.571    40115.752 
 1597600          238   0.50306635  0.077615888    6649.4469    7726.3445    14375.791    40118.924 
 1597700        238.5   0.50483297  0.070850791    6583.9461    7753.4771    14337.423    40122.095 
 1597800          239   0.49745979  0.064105767    6651.9606    7640.2361    14292.197    40125.263 
 1597900        239.5   0.50491473  0.069231132    6661.0165    7754.7329    14415.749    40128.429 
 1598000          240   0.49723794  0.052383002    6707.1655    7636.8289    14343.994    40131.593 
 1598100        240.5   0.49679782   0.04225564    6647.1543    7630.0694    14277.224    40134.754 
 1598200          241    0.5021362  0.042552078    6690.0299    7712.0589    14402.089    40137.914 
 1598300        241.5   0.49954839   0.08339478    6696.9584    7672.3139    14369.272     40141.07 
 1598400          242   0.49731593  0.062627272    6623.7925    7638.0267    14261.819    40144.224 
 1598500        242.5   0.50182906   0.06585751    6740.7457    7707.3416    14448.087    40147.375 
 1598600          243    0.4994404  0.071259243    6606.1983    7670.6554    14276.854    40150.525 
 1598700        243.5   0.49553996  0.059597466    6630.4101    7610.7504     14241.16    40153.672 
 1598800          244   0.49498566  0.085783088    6664.8817    7602.2373    14267.119    40156.817 
 1598900        244.5   0.49356978  0.054699463    6700.3648    7580.4915    14280.856    40159.961 
 1599000          245   0.49766024  0.028778993    6691.8415    7643.3148    14335.156    40163.102 
 1599100        245.5   0.49817113  0.065192622    6651.4477    7651.1613    14302.609    40166.242 
 1599200          246   0.49594524  0.055439743    6694.6679     7616.975    14311.643     40169.38 
 1599300        246.5   0.50109971  0.091413057    6731.4046    7696.1399    14427.544    40172.516 
 1599400          247   0.50260641  0.072984752    6633.4012    7719.2806    14352.682    40175.651 
 1599500        247.5   0.50428343  0.044631819    6677.7432     7745.037     14422.78    40178.783 
 1599600          248   0.50047861  0.056419269    6638.2384    7686.6007    14324.839    40181.913 
 1599700        248.5   0.49486185  0.086212832    6688.2651    7600.3357    14288.601    40185.042 
 1599800          249    0.4934863  0.070784416     6705.395    7579.2094    14284.604    40188.168 
 1599900        249.5   0.49906705   0.04704902      6596.53    7664.9212    14261.451    40191.293 
 1600000          250   0.49846179  0.064667902    6736.3617    7655.6255    14391.987    40194.417 
 1600100        250.5   0.50414488  0.078353799    6628.0938    7742.9092    14371.003     40197.54 
 1600200          251   0.50427734  0.076579347     6710.223    7744.9435    14455.166    40200.661 
 1600300        251.5   0.49962492  0.077482129    6768.9921    7673.4893    14442.481    40203.781 
 1600400          252   0.49924758  0.075207201     6714.747     7667.694    14382.441      40206.9 
 1600500        252.5   0.49637218   0.07699071    6788.8381    7623.5322     14412.37    40210.019 
 1600600          253   0.50859896  0.069068013    6702.9899    7811.3172    14514.307    40213.136 
 1600700        253.5   0.50306124  0.067571829    6622.4912     7726.266    14348.757    40216.253 
 1600800          254   0.50355688  0.037913164    6759.8618    7733.8783     14493.74    40219.369 
 1600900        254.5   0.50040829  0.066209022    6786.0258    7685.5207    14471.547    40222.483 
 1601000          255   0.50144402  0.084178994    6687.2507    7701.4281    14388.679    40225.597 
 1601100        255.5   0.49889963  0.075376062     6735.378      7662.35    14397.728     40228.71 
 1601200          256    0.5016822  0.063953228     6694.793    7705.0861    14399.879    40231.821 
 1601300        256.5   0.49880952  0.064399187    6754.5739    7660.9661     14415.54     40234.93 
 1601400          257   0.50150464  0.075279666    6766.6153     7702.359    14468.974    40238.038 
 1601500        257.5   0.49901098  0.057645502    6755.4576    7664.0602    14419.518    40241.144 
 1601600          258   0.49913976  0.051284449    6752.9363     7666.038    14418.974     40244.25 
 1601700        258.5   0.49899218  0.043952457    6837.8838    7663.7714    14501.655    40247.356 
 1601800          259   0.50159396  0.095471385    6770.1427    7703.7309    14473.874    40250.459 
 1601900        259.5   0.50320198  0.061991729    6769.9356    7728.4275    14498.363    40253.563 
 1602000          260    0.5035132  0.048689605    6707.0149    7733.2074    14440.222    40256.666 
 1602100        260.5   0.49915749  0.073166345    6676.7421    7666.3103    14343.052    40259.768 
 1602200          261   0.49912199  0.074198111    6748.3258    7665.7651    14414.091    40262.871 
 1602300        261.5   0.49861558  0.054994283    6698.6797    7657.9873    14356.667    40265.974 
 1602400          262   0.50013398  0.057421726     6704.481    7681.3078    14385.789    40269.076 
 1602500        262.5   0.49946793  0.062747014    6708.0819    7671.0782     14379.16    40272.176 
 1602600          263   0.50144252  0.065827838    6678.8314    7701.4049    14380.236    40275.275 
 1602700        263.5   0.49465037  0.017774505    6757.8231    7597.0876    14354.911    40278.375 
 1602800          264   0.50507841  0.077478975    6713.2317    7757.2467    14470.478    40281.473 
 1602900        264.5   0.49871868   0.12644985    6650.8387    7659.5709     14310.41    40284.568 
 1603000          265   0.49614729  0.081669207    6753.6579    7620.0782    14373.736    40287.666 
 1603100        265.5   0.50049352  0.065294769    6713.9057    7686.8297    14400.735    40290.763 
 1603200          266   0.50464772  0.056916238    6712.6972     7750.632    14463.329    40293.861 
 1603300        266.5   0.50359543  0.062220024    6639.3437    7734.4704    14373.814    40296.958 
 1603400          267   0.49892258  0.061643155    6688.8272    7662.7024     14351.53    40300.053 
 1603500        267.5   0.50110313  0.052948653    6767.5518    7696.1924    14463.744    40303.148 
 1603600          268   0.50490391   0.05645399     6787.306    7754.5667    14541.873    40306.243 
 1603700        268.5   0.49879969  0.071764088    6752.8358     7660.815    14413.651    40309.336 
 1603800          269   0.50425583  0.055418935    6721.0514    7744.6132    14465.665     40312.43 
 1603900        269.5   0.50652692  0.096274994    6693.7302    7779.4937    14473.224    40315.523 
 1604000          270   0.50345027  0.075379022    6740.5358     7732.241    14472.777    40318.616 
 1604100        270.5   0.49727171  0.046460455    6836.7731    7637.3476    14474.121    40321.708 
 1604200          271   0.50192222  0.060834606    6734.6094    7708.7724    14443.382    40324.798 
 1604300        271.5   0.50242246  0.047516642    6726.1119    7716.4553    14442.567    40327.889 
 1604400          272   0.49927197  0.051946053    6659.1692    7668.0685    14327.238    40330.978 
 1604500        272.5   0.50173017  0.077129575    6746.3281    7705.8228    14452.151    40334.067 
 1604600          273    0.5040898   0.10941219      6684.42    7742.0632    14426.483    40337.157 
 1604700        273.5   0.50022068  0.061333887      6731.16    7682.6393    14413.799    40340.247 
 1604800          274   0.49868518  0.031483197    6679.2095    7659.0563    14338.266    40343.338 
 1604900        274.5   0.50157149  0.069164956    6690.6737    7703.3857    14394.059    40346.429 
 1605000          275   0.49572626  0.061505225    6645.4799    7613.6118    14259.092     40349.52 
 1605100        275.5   0.49593831  0.064846561    6692.6394    7616.8686    14309.508    40352.612 
 1605200          276   0.49429337  0.053565626    6679.0363    7591.6048    14270.641    40355.704 
 1605300        276.5   0.49891738  0.041807093    6630.3486    7662.6226    14292.971    40358.795 
 1605400          277   0.49855118  0.072820364    6728.3029    7656.9983    14385.301    40361.885 
 1605500        277.5   0.50088876  0.051160728    6737.4719       7692.9    14430.372    40364.975 
 1605600          278   0.49992091  0.058573783    6705.6998    7678.0353    14383.735    40368.066 
 1605700        278.5   0.50147962  0.065958219    6606.6308    7701.9748    14308.606    40371.156 
 1605800          279   0.49960188  0.093051737    6691.1184    7673.1355    14364.254    40374.248 
 1605900        279.5   0.49951449  0.056071707    6701.8344    7671.7933    14373.628     40377.34 
 1606000          280   0.49893131  0.053477231    6776.0798    7662.8366    14438.916    40380.431 
 1606100        280.5   0.50224591  0.066281574    6782.6374    7713.7438    14496.381    40383.522 
 1606200          281   0.49964858  0.049564384    6654.1081    7673.8528    14327.961    40386.614 
 1606300        281.5   0.49694417  0.052464832     6713.082     7632.317    14345.399    40389.707 
 1606400          282   0.50200405  0.092265372    6749.3383    7710.0292    14459.368      40392.8 
 1606500        282.5   0.50315575  0.057779723    6639.7986    7727.7176    14367.516    40395.896 
 1606600          283   0.48997075   0.04107935    6712.6657    7525.2158    14237.882    40398.993 
 1606700        283.5   0.49984032  0.074329846    6643.5057    7676.7975    14320.303    40402.089 
 1606800          284   0.49954881    0.0834439    6778.6035    7672.3203    14450.924    40405.186 
 1606900        284.5   0.50111448   0.04734869    6745.4056    7696.3668    14441.772    40408.282 
 1607000          285   0.50665096  0.065562504    6750.4175    7781.3988    14531.816    40411.379 
 1607100        285.5   0.49221362  0.032222273    6726.3819    7559.6628    14286.045    40414.475 
 1607200          286     0.505821  0.042025864    6566.0926    7768.6518    14334.744    40417.572 
 1607300        286.5   0.49784158  0.083609212     6618.662    7646.0998    14264.762    40420.669 
 1607400          287     0.496872  0.073199974    6667.0834    7631.2086    14298.292    40423.769 
 1607500        287.5   0.49754805  0.058402929    6701.6197    7641.5917    14343.211     40426.87 
 1607600          288   0.49987352  0.069224028    6666.6279    7677.3075    14343.935    40429.972 
 1607700        288.5   0.49796791  0.067296959    6671.9756    7648.0402    14320.016    40433.076 
 1607800          289   0.49342267  0.060983813    6685.6448     7578.232    14263.877    40436.181 
 1607900        289.5   0.49378013  0.060230889    6660.4711    7583.7221    14244.193    40439.288 
 1608000          290   0.49740486  0.050964681    6649.2414    7639.3926    14288.634    40442.396 
 1608100        290.5   0.49661696  0.053756323    6772.4203    7627.2916    14399.712    40445.503 
 1608200          291    0.4966539  0.069057816    6614.2751    7627.8588    14242.134    40448.612 
 1608300        291.5   0.49590731  0.087732506    6615.1098    7616.3924    14231.502    40451.723 
 1608400          292   0.49864626  0.060845581    6593.6476    7658.4587    14252.106    40454.833 
 1608500        292.5   0.50454752  0.062729714     6709.836    7749.0932    14458.929    40457.944 
 1608600          293   0.49743392  0.075366196    6726.2931    7639.8388    14366.132    40461.057 
 1608700        293.5   0.49507707  0.053097267    6720.2202    7603.6412    14323.861    40464.173 
 160