LAMMPS (3 Mar 2020)
OMP_NUM_THREADS environment is not set. Defaulting to 1 thread. (../comm.cpp:94)
  using 1 OpenMP thread(s) per MPI task
#run with lmp_serial -pk omp 8 -sf omp -in in.run_loop

#SETUP
# Runs on the first loop only
shell del *.dump     # delete all dump files before first run CAREFUL WITH THIS
shell del restart.time*     # delete all current restart files before first run
shell lmp_serial -in in.run_setup     # first run of file, generate first restart file

#VARIABLES
variable N         equal  1024  #MUST BE SAME AS SETUP FILE FOR PHASEPLOT
variable T         equal  0.5
variable t_step    equal  0.005 #originally 0.005
variable mix_steps index  30000 20000 10000 10000 10000 10000 10000 100000 100000
variable mix_tau   equal  ${t_step}*${mix_steps}
variable mix_tau   equal  0.005*${mix_steps}
variable mix_tau   equal  0.005*30000
variable run_steps equal  1500000 # steps to run simulation in order to reach steady state
variable run_tau   equal  ${t_step}*${run_steps} # this is the time in LJ units
variable run_tau   equal  0.005*${run_steps} 
variable run_tau   equal  0.005*1500000 
#1000 particles averages 35,000 steps per minute

#LOOP START
label loop  #start loop from here
read_restart restart.time*
  restoring atom style molecular from restart
  orthogonal box = (-0 -0 -0) to (18.24 40.32 18.24)
  1 by 1 by 1 MPI processor grid
  restoring pair style lj/cut from restart
  restoring bond style harmonic from restart
  restoring angle style harmonic from restart
  10240 atoms
  9216 bonds
  8192 angles
  2 = max # of 1-2 neighbors
  2 = max # of 1-3 neighbors
  4 = max # of 1-4 neighbors
  6 = max # of special neighbors
  special bonds CPU = 0.0259311 secs
  read_restart CPU = 0.117683 secs
# this reads in latest restart file, * is wildcard for timestep


# THERMAL
timestep ${t_step}
timestep 0.005
thermo   100
thermo_style custom step time temp press pe ke etotal vol
thermo_modify norm no


# DUMP OUTPUT
dump  1  all custom 10000 output_T_${T}_time_*.dump id mol type x y z vx vy vz
dump  1  all custom 10000 output_T_0.5_time_*.dump id mol type x y z vx vy vz
# dumps all positions etc every N  steps
dump_modify 1 sort id

# FIX
fix 2 all nph iso 0.0001 0.0001 1000   #reduced target pressure here
fix 3 all langevin ${T} ${T} 1 123456 #as above
fix 3 all langevin 0.5 ${T} 1 123456 
fix 3 all langevin 0.5 0.5 1 123456 
run ${mix_steps}
run 30000
Neighbor list info ...
  update every 1 steps, delay 10 steps, check yes
  max neighbors/atom: 2000, page size: 100000
  master list distance cutoff = 1.42
  ghost atom cutoff = 1.9
  binsize = 0.71, bins = 26 57 26
  1 neighbor lists, perpetual/occasional/extra = 1 0 0
  (1) pair lj/cut, perpetual
      attributes: half, newton on
      pair build: half/bin/newton
      stencil: half/bin/3d/newton
      bin: standard
Per MPI rank memory allocation (min/avg/max) = 16.42 | 16.42 | 16.42 Mbytes
Step Time Temp Press PotEng KinEng TotEng Volume 
       0            0            0 -2.7685018e-15 1.4565528e-23            0 1.4565528e-23    13414.367 
     100          0.5   0.20986137   0.51228373    2794.6984    3223.1558    6017.8542    13414.368 
     200            1   0.33250547   0.81897143    4389.3149    5106.7853    9496.1002    13414.376 
     300          1.5   0.40001409   0.83233581    5484.9583    6143.6163    11628.575    13414.393 
     400            2   0.44041996   0.80408567     6085.428    6764.1899    12849.618    13414.421 
     500          2.5   0.46904669   0.84292843    6428.5472    7203.8536    13632.401    13414.461 
     600            3   0.48050537   0.84704822     6698.377    7379.8417    14078.219    13414.511 
     700          3.5   0.49357483   0.91712205    6816.7047     7580.569    14397.274    13414.573 
     800            4   0.50101076    0.7936272    6915.6531    7694.7737    14610.427    13414.646 
     900          4.5   0.49942937   0.74602013    6833.4021     7670.486    14503.888     13414.73 
    1000            5   0.49513429   0.81318143    6932.6772    7604.5201    14537.197    13414.825 
    1100          5.5   0.50471543   0.83555795    6870.1727    7751.6719    14621.845    13414.931 
    1200            6   0.50089717   0.81061499    6955.4663    7693.0291    14648.495    13415.048 
    1300          6.5    0.4997579   0.87600688    6848.6136    7675.5317    14524.145    13415.176 
    1400            7   0.49722037   0.79819728    6863.2956     7636.559    14499.855    13415.314 
    1500          7.5    0.5023959    0.8073136    6795.5012    7716.0475    14511.549    13415.464 
    1600            8   0.50430041   0.88941702    6858.8999    7745.2979    14604.198    13415.624 
    1700          8.5   0.50427169   0.78387943    6869.2185    7744.8568    14614.075    13415.795 
    1800            9   0.49722263   0.74419035    6905.7842    7636.5938    14542.378    13415.976 
    1900          9.5   0.50394245   0.80619364    6819.9126    7739.8001    14559.713    13416.168 
    2000           10   0.50366003   0.89149345    6849.0089    7735.4626    14584.472    13416.371 
    2100         10.5   0.50119235   0.87744078    6893.6075    7697.5628     14591.17    13416.585 
    2200           11   0.49337486   0.76366473    6890.5767    7577.4978    14468.074     13416.81 
    2300         11.5   0.49679596   0.80388506    6829.2232    7630.0408    14459.264    13417.045 
    2400           12    0.4992579   0.79783094    6852.3568    7667.8524    14520.209    13417.292 
    2500         12.5   0.50164038   0.86428351    6978.1706    7704.4438    14682.614     13417.55 
    2600           13   0.50478818    0.8723923    6994.8595    7752.7893    14747.649    13417.819 
    2700         13.5   0.50588603   0.88342342    7018.8905    7769.6506    14788.541    13418.099 
    2800           14   0.50769175   0.83452539    6840.9643    7797.3838    14638.348     13418.39 
    2900         14.5   0.50211149   0.80604868     6918.054    7711.6792    14629.733    13418.693 
    3000           15   0.50469857   0.69643706    6839.0591     7751.413    14590.472    13419.007 
    3100         15.5    0.5017429   0.80451987    6779.4102    7706.0183    14485.428    13419.331 
    3200           16   0.49821584   0.87428223    6801.5322    7651.8479     14453.38    13419.666 
    3300         16.5    0.4984614   0.84574046    6778.7971    7655.6193    14434.416    13420.012 
    3400           17   0.50746792   0.74713763    6756.1604     7793.946    14550.106    13420.368 
    3500         17.5    0.5001569   0.69699353    6799.3818    7681.6597    14481.042    13420.735 
    3600           18     0.495598   0.74410805    6836.6462    7611.6419    14448.288    13421.112 
    3700         18.5   0.49498822   0.84377106    6872.3132    7602.2766     14474.59    13421.499 
    3800           19   0.49676921   0.80093224    6862.4198    7629.6299     14492.05    13421.897 
    3900         19.5   0.49983337   0.73360474    6827.3693    7676.6909     14504.06    13422.306 
    4000           20   0.49931064   0.86705563    6769.6889    7668.6625    14438.351    13422.724 
    4100         20.5   0.49761649   0.77603867    6789.6342    7642.6428    14432.277    13423.154 
    4200           21   0.49346875   0.77712646    6754.4679    7578.9398    14333.408    13423.594 
    4300         21.5   0.49691241   0.87075324     6811.461    7631.8293     14443.29    13424.045 
    4400           22   0.49610939   0.79792886    6878.0704    7619.4961    14497.566    13424.507 
    4500         22.5   0.50471025   0.70673731    6831.7548    7751.5923    14583.347    13424.979 
    4600           23   0.50381184   0.82083564    6903.7875    7737.7941    14641.582    13425.462 
    4700         23.5   0.49777763   0.86867816    6881.3388    7645.1178    14526.457    13425.955 
    4800           24   0.50053917    0.8654803    6814.1462    7687.5309    14501.677    13426.459 
    4900         24.5   0.49484482   0.80697867    6832.6746    7600.0741    14432.749    13426.974 
    5000           25   0.49573347   0.81993818    6870.2872    7613.7225     14484.01    13427.501 
    5100         25.5   0.49899024   0.80594933    6857.8542    7663.7416    14521.596    13428.038 
    5200           26   0.50109515   0.90303843    6792.8193    7696.0698    14488.889    13428.586 
    5300         26.5   0.50663311   0.81046844    6783.4964    7781.1246    14564.621    13429.144 
    5400           27    0.4977542   0.73734487    6886.5656    7644.7578    14531.323    13429.713 
    5500         27.5   0.50476273   0.86297881    6855.8097    7752.3984    14608.208    13430.292 
    5600           28   0.50677315     0.797128    6888.4843    7783.2754     14671.76    13430.882 
    5700         28.5   0.49913117   0.78307464    6908.9645     7665.906    14574.871    13431.482 
    5800           29   0.49801748   0.79494038    6893.2782    7648.8015     14542.08    13432.093 
    5900         29.5   0.49985145   0.80821603    6850.0374    7676.9685    14527.006    13432.714 
    6000           30   0.50146444   0.84548218    6857.1328    7701.7416    14558.874    13433.346 
    6100         30.5   0.49831357   0.80077124    6944.7506    7653.3489    14598.099    13433.988 
    6200           31   0.50022635   0.80268638    6964.6384    7682.7264    14647.365    13434.641 
    6300         31.5   0.49784527   0.86884198    6920.2969    7646.1565    14566.453    13435.305 
    6400           32   0.49484624    0.8746488    6921.1294    7600.0959    14521.225     13435.98 
    6500         32.5   0.49527708   0.87127883    6855.3136     7606.713    14462.027    13436.666 
    6600           33   0.49696271   0.86987317    6800.7687    7632.6018     14433.37    13437.363 
    6700         33.5   0.49905731    0.7901776    6892.1624    7664.7717    14556.934    13438.071 
    6800           34   0.50212561   0.75131834    6809.8771    7711.8961    14521.773    13438.788 
    6900         34.5    0.4992866   0.85803224    6885.4345    7668.2932    14553.728    13439.516 
    7000           35   0.50335743    0.8584497    6790.5907     7730.815    14521.406    13440.255 
    7100         35.5   0.49611085   0.79690739     6767.894    7619.5184    14387.412    13441.004 
    7200           36   0.49479951   0.83484804    6844.0482    7599.3782    14443.426    13441.763 
    7300         36.5   0.49082321    0.8093143     6846.547    7538.3082    14384.855    13442.533 
    7400           37    0.4965079   0.76354526    6888.9565    7625.6166    14514.573    13443.313 
    7500         37.5   0.50316819   0.75064213    6863.6264    7727.9086    14591.535    13444.104 
    7600           38   0.50255387   0.80590412    6844.7234    7718.4736    14563.197    13444.905 
    7700         38.5   0.49739761   0.77471815    6874.2559    7639.2812    14513.537    13445.717 
    7800           39   0.49947506   0.77234715    6876.2273    7671.1877    14547.415    13446.538 
    7900         39.5   0.50236828    0.7718627    6867.1121    7715.6233    14582.735     13447.37 
    8000           40   0.50260483     0.736253    6845.6638    7719.2562     14564.92    13448.213 
    8100         40.5   0.49539016   0.68731948    6821.7399    7608.4497     14430.19    13449.065 
    8200           41   0.49608602    0.8723904    6856.4289    7619.1372    14475.566    13449.927 
    8300         41.5   0.49932369   0.81453742    6765.2377    7668.8629    14434.101    13450.799 
    8400           42   0.49561463   0.84828287    6882.6706    7611.8972    14494.568    13451.682 
    8500         42.5   0.49920102   0.77679936    6884.6221    7666.9788    14551.601    13452.576 
    8600           43   0.49333698   0.77720551    6899.0444     7576.916     14475.96    13453.479 
    8700         43.5   0.50218996   0.62468788    6724.5117    7712.8844    14437.396    13454.393 
    8800           44   0.50303552   0.68583126    6741.2175     7725.871    14467.088    13455.317 
    8900         44.5    0.5016852   0.80699155    6787.2948    7705.1322    14492.427     13456.25 
    9000           45   0.49661469    0.7992674    6895.0987    7627.2568    14522.355    13457.193 
    9100         45.5   0.50044619   0.75463718    6838.4847    7686.1029    14524.588    13458.147 
    9200           46   0.51011022   0.74470912    6817.7996    7834.5279    14652.327     13459.11 
    9300         46.5   0.50457931    0.8526674    6900.0868    7749.5813    14649.668    13460.083 
    9400           47   0.50256496   0.82516474    6872.2254    7718.6439    14590.869    13461.066 
    9500         47.5   0.50514018   0.78609432     6866.406    7758.1954    14624.601    13462.059 
    9600           48   0.49432997   0.79614187    6912.0101    7592.1668    14504.177    13463.062 
    9700         48.5   0.49464342    0.7782717    6861.2946    7596.9809    14458.276    13464.074 
    9800           49   0.49952926   0.74190711    6795.5862    7672.0202    14467.606    13465.097 
    9900         49.5    0.4985488   0.81559877    6798.7466    7656.9618    14455.708    13466.129 
   10000           50    0.4932721   0.71042607    6825.2346    7575.9195    14401.154    13467.172 
   10100         50.5   0.49315689   0.76837276    6838.6857    7574.1501    14412.836    13468.224 
   10200           51   0.49635735   0.77786123    6887.7373    7623.3043    14511.042    13469.285 
   10300         51.5   0.49793499   0.74121656     6827.162    7647.5345    14474.697    13470.356 
   10400           52   0.50119505   0.79223513    6816.9525    7697.6042    14514.557    13471.436 
   10500         52.5   0.49787424   0.68464493     6856.683    7646.6015    14503.284    13472.526 
   10600           53    0.4966335   0.69562264    6953.1221    7627.5456    14580.668    13473.625 
   10700         53.5    0.5014903   0.73741314    6917.8822    7702.1387    14620.021    13474.734 
   10800           54   0.49957731   0.75959412    6861.2631    7672.7581    14534.021    13475.852 
   10900         54.5   0.49596215   0.79015476    6853.7053    7617.2347     14470.94     13476.98 
   11000           55   0.50242679   0.80798607    6823.0464    7716.5218    14539.568    13478.117 
   11100         55.5   0.50843651    0.7561477    6853.4319    7808.8222    14662.254    13479.263 
   11200           56   0.50834754   0.70677206    6903.5068    7807.4557    14710.963    13480.418 
   11300         56.5   0.49972327   0.75800806    7010.8472    7674.9999    14685.847    13481.582 
   11400           57    0.5017466   0.77030961    7001.5162    7706.0752    14707.591    13482.755 
   11500         57.5    0.4983572   0.73680809     6956.174    7654.0191    14610.193    13483.937 
   11600           58   0.49441865   0.71391551    6858.0768    7593.5288    14451.606    13485.127 
   11700         58.5   0.49726414    0.7450348    6952.6333    7637.2313    14589.865    13486.326 
   11800           59   0.50243455   0.78091148    6900.6101     7716.641    14617.251    13487.534 
   11900         59.5   0.49841347   0.69302911    6917.3052    7654.8832    14572.188    13488.752 
   12000           60    0.5035125   0.79174888    6788.4486    7733.1968    14521.645    13489.978 
   12100         60.5    0.5050399   0.86814582    6802.7495    7756.6553    14559.405    13491.213 
   12200           61   0.50065236    0.8493601    6945.0096    7689.2692    14634.279    13492.458 
   12300         61.5   0.49998795   0.72000468    6889.2572     7679.065    14568.322    13493.711 
   12400           62   0.49855942   0.77960074    6928.8401    7657.1249    14585.965    13494.973 
   12500         62.5   0.49910672   0.75864404    6925.8657    7665.5306    14591.396    13496.244 
   12600           63   0.49406013   0.77173936     6830.494    7588.0225    14418.517    13497.524 
   12700         63.5   0.49902895   0.73539185     6860.759    7664.3361    14525.095    13498.812 
   12800           64    0.5016255   0.71586532    6787.6572    7704.2152    14491.872    13500.109 
   12900         64.5   0.50044779   0.77006592    6872.8359    7686.1274    14558.963    13501.413 
   13000           65   0.50130268   0.64582048    6912.4121    7699.2572    14611.669    13502.727 
   13100         65.5   0.50218529   0.75427159      6953.08    7712.8128    14665.893    13504.048 
   13200           66   0.49679999   0.76015981    6947.7443    7630.1027    14577.847    13505.378 
   13300         66.5   0.49959302   0.85803057    6882.0312    7672.9993    14555.031    13506.716 
   13400           67   0.50454056   0.75857913    6825.9516    7748.9862    14574.938    13508.062 
   13500         67.5   0.50036552   0.70276858    6854.9766    7684.8638     14539.84    13509.417 
   13600           68   0.50197011    0.7918503      6834.65    7709.5079    14544.158    13510.779 
   13700         68.5   0.49562393   0.76076191    6878.1158    7612.0401    14490.156    13512.149 
   13800           69   0.50094369   0.80648808    6911.1501    7693.7437    14604.894    13513.528 
   13900         69.5   0.49813816   0.80215037    6921.9182    7650.6549    14572.573    13514.914 
   14000           70   0.49724829   0.76224232    6952.7878    7636.9879    14589.776    13516.309 
   14100         70.5   0.49690613   0.78935454    6955.8596    7631.7328    14587.592    13517.711 
   14200           71   0.50862485   0.73890083    6866.4461    7811.7147    14678.161     13519.12 
   14300         71.5   0.49817146   0.66511611    6880.5811    7651.1664    14531.747    13520.538 
   14400           72   0.49796719   0.75863245    7025.9905    7648.0291     14674.02    13521.963 
   14500         72.5   0.50049596   0.71684982    6803.6026    7686.8672     14490.47    13523.395 
   14600           73   0.49887883   0.71229387     6841.735    7662.0305    14503.766    13524.834 
   14700         73.5   0.50069205   0.66762814    6852.3411    7689.8788     14542.22     13526.28 
   14800           74   0.49971978    0.8004243    6934.8632    7674.9462    14609.809    13527.733 
   14900         74.5   0.50145219   0.86725826    6871.5583    7701.5535    14573.112    13529.193 
   15000           75   0.50257551   0.76446248    6835.8985    7718.8059    14554.704     13530.66 
   15100         75.5   0.49634702   0.82076692     6828.045    7623.1457    14451.191    13532.135 
   15200           76   0.49284591   0.74060125    6866.9858    7569.3739     14436.36    13533.617 
   15300         76.5   0.50426877   0.75328365    6830.7017    7744.8119    14575.514    13535.106 
   15400           77   0.50037855    0.7959407    6767.2161    7685.0639     14452.28    13536.602 
   15500         77.5   0.49585732   0.77731997     6772.175    7615.6246      14387.8    13538.105 
   15600           78   0.49054891   0.72469195    6822.4658    7534.0955    14356.561    13539.614 
   15700         78.5   0.49071594   0.76603976    6820.4653    7536.6608    14357.126     13541.13 
   15800           79   0.49424248   0.71502965    6721.1577    7590.8232    14311.981    13542.652 
   15900         79.5   0.49501657   0.70534856    6702.4428     7602.712    14305.155    13544.181 
   16000           80   0.49320861   0.73170762    6788.9103    7574.9444    14363.855    13545.716 
   16100         80.5   0.50220219    0.7248811    6856.9428    7713.0723    14570.015    13547.257 
   16200           81   0.49444808   0.64427052    6884.2556    7593.9808    14478.236    13548.804 
   16300         81.5   0.49938165   0.80323674    6904.3189     7669.753    14574.072    13550.358 
   16400           82   0.49901579   0.78255119    6840.5032    7664.1341    14504.637    13551.917 
   16500         82.5   0.50183905   0.66301278    6880.0842    7707.4951    14587.579    13553.482 
   16600           83   0.50000833   0.68869506    6835.0104     7679.378    14514.388    13555.053 
   16700         83.5   0.49439951   0.71128799    6934.5294    7593.2349    14527.764    13556.629 
   16800           84    0.4984568   0.65523985    6874.6328    7655.5487    14530.182     13558.21 
   16900         84.5   0.49619843   0.70853783    6875.5945    7620.8636    14496.458    13559.797 
   17000           85   0.49776513   0.77776659    6806.5295    7644.9258    14451.455    13561.389 
   17100         85.5   0.49608001   0.79421084    6861.9871    7619.0448    14481.032    13562.986 
   17200           86    0.4993134   0.67964583    6846.1165    7668.7049    14514.821    13564.588 
   17300         86.5   0.50426249   0.70598483    6837.8966    7744.7154    14582.612    13566.196 
   17400           87   0.50602199   0.73974742    6996.3136    7771.7387    14768.052    13567.809 
   17500         87.5   0.49538171   0.69954009    7043.4453    7608.3199    14651.765    13569.426 
   17600           88   0.50210109    0.7684065    6766.5378    7711.5195    14478.057    13571.048 
   17700         88.5   0.50342732   0.64218719    6853.8607    7731.8885    14585.749    13572.675 
   17800           89   0.49851975    0.6646354    6830.3305    7656.5155    14486.846    13574.305 
   17900         89.5   0.49576503   0.69692724    6801.1072    7614.2073    14415.314     13575.94 
   18000           90   0.49344045   0.77001449    6813.7438    7578.5051    14392.249     13577.58 
   18100         90.5   0.49588645   0.69607823    6920.1157     7616.072    14536.188    13579.224 
   18200           91   0.49943349   0.67331297    6925.7988    7670.5493    14596.348    13580.871 
   18300         91.5   0.50403881   0.69747179    6822.9227      7741.28    14564.203    13582.524 
   18400           92   0.50055074   0.74648035    6806.0897    7687.7085    14493.798     13584.18 
   18500         92.5   0.50539794   0.81760732     6880.519    7762.1542    14642.673     13585.84 
   18600           93    0.5032096    0.7144908    6941.0989    7728.5447    14669.644    13587.504 
   18700         93.5   0.50573156   0.65289905    6905.9787    7767.2782    14673.257    13589.172 
   18800           94   0.50569749   0.66662544    6886.2454     7766.755        14653    13590.844 
   18900         94.5    0.5084695   0.82387222    6867.8069    7809.3288    14677.136    13592.518 
   19000           95   0.50142232   0.83617149    6945.7012    7701.0947    14646.796    13594.197 
   19100         95.5   0.50141477   0.78164288    6944.8536    7700.9787    14645.832    13595.879 
   19200           96   0.50204259   0.64535273    6833.8617    7710.6212    14544.483    13597.564 
   19300         96.5   0.50111405    0.7825474    6805.1935    7696.3602    14501.554    13599.251 
   19400           97   0.50205639    0.7445009    6891.0823     7710.833    14601.915    13600.943 
   19500         97.5   0.50418902   0.80989685    6749.7105    7743.5871    14493.298    13602.637 
   19600           98   0.48865109   0.73358297    6769.8137    7504.9477    14274.761    13604.335 
   19700         98.5   0.48812333   0.71144993    6798.5102    7496.8422    14295.352    13606.034 
   19800           99   0.50018435   0.70191738    6907.9671    7682.0813    14590.048    13607.737 
   19900         99.5   0.50202465   0.79673123    6831.1426    7710.3456    14541.488    13609.442 
   20000          100   0.49319673   0.70414435    6897.9669     7574.762    14472.729    13611.149 
   20100        100.5   0.50543199   0.71060875    6775.6536    7762.6772    14538.331    13612.859 
   20200          101   0.49663087   0.78096547    6802.4778    7627.5052    14429.983    13614.571 
   20300        101.5   0.50047212   0.66992419    6929.8716     7686.501    14616.373    13616.285 
   20400          102   0.50111501   0.68459891    6913.3854    7696.3748     14609.76        13618 
   20500        102.5   0.49713283   0.76226609    6850.0124    7635.2146    14485.227    13619.717 
   20600          103   0.50119886   0.68040188    6807.2377    7697.6627      14504.9    13621.435 
   20700        103.5   0.49962961   0.67460096    6823.5086    7673.5614     14497.07    13623.155 
   20800          104   0.50260651   0.71326566    6842.6844    7719.2821    14561.967    13624.876 
   20900        104.5   0.50172913   0.67396581     6878.616    7705.8068    14584.423    13626.599 
   21000          105   0.49926849   0.78877599    6990.5075    7668.0152    14658.523    13628.323 
   21100        105.5   0.49777939   0.65820435    6945.1814    7645.1448    14590.326    13630.049 
   21200          106   0.50174913   0.68157656    6859.9754     7706.114    14566.089    13631.776 
   21300        106.5   0.50077131   0.70968271    6825.8496    7691.0962    14516.946    13633.504 
   21400          107   0.49942468   0.69443046    6950.6457    7670.4139     14621.06    13635.233 
   21500        107.5   0.50868681   0.71314621    6887.2439    7812.6663     14699.91    13636.963 
   21600          108   0.50564198   0.66948144     6852.598    7765.9024      14618.5    13638.694 
   21700        108.5   0.50195941   0.81785242    6898.2653    7709.3436    14607.609    13640.426 
   21800          109   0.49760495   0.74264692    6923.5825    7642.4657    14566.048    13642.158 
   21900        109.5   0.49732316   0.69834059    6939.0003    7638.1378    14577.138    13643.892 
   22000          110   0.49671941   0.65575895     6903.134    7628.8651    14531.999    13645.625 
   22100        110.5   0.50086587   0.71557809    6780.1178    7692.5485    14472.666    13647.358 
   22200          111   0.49845042   0.64964438     6935.539    7655.4508     14590.99    13649.092 
   22300        111.5   0.49978751   0.70695628    6806.7166    7675.9865    14482.703    13650.825 
   22400          112   0.49791404   0.77885386    6794.5988    7647.2128    14441.812    13652.558 
   22500        112.5   0.49784176   0.69919762    6822.8806    7646.1027    14468.983    13654.291 
   22600          113     0.501174   0.71295728    6851.7543    7697.2809    14549.035    13656.023 
   22700        113.5   0.49925174   0.66339896    6824.6013    7667.7579    14492.359    13657.756 
   22800          114   0.49992233   0.69055244    6849.3371     7678.057    14527.394    13659.488 
   22900        114.5   0.50090463   0.76599069    6811.4031    7693.1437    14504.547    13661.219 
   23000          115   0.50443471   0.73863061    6804.7587    7747.3605    14552.119    13662.951 
   23100        115.5   0.49867673   0.63383399    6864.3872    7658.9266    14523.314    13664.682 
   23200          116   0.50253224   0.64758869    6904.7563    7718.1414    14622.898    13666.413 
   23300        116.5   0.49852976   0.73943357    6803.6969    7656.6694    14460.366    13668.143 
   23400          117   0.49751615    0.6551887    6808.2709    7641.1018    14449.373    13669.873 
   23500        117.5   0.49853382   0.61644482    6860.5762    7656.7317    14517.308    13671.601 
   23600          118   0.50594763   0.74323609    6798.6986    7770.5966    14569.295    13673.329 
   23700        118.5   0.49915236   0.84293962    6901.6878    7666.2315    14567.919    13675.056 
   23800          119    0.4944937   0.69876534    6970.0216    7594.6815    14564.703    13676.782 
   23900        119.5   0.50061964   0.60247367    6818.1493    7688.7667    14506.916    13678.507 
   24000          120   0.50225333   0.69584045    6783.1246    7713.8577    14496.982    13680.231 
   24100        120.5   0.49422355   0.79012411    6804.0862    7590.5324    14394.619    13681.953 
   24200          121   0.49881274   0.72823243    6792.1557    7661.0154    14453.171    13683.673 
   24300        121.5    0.5032273   0.67312412    6823.8493    7728.8165    14552.666    13685.392 
   24400          122   0.50429151   0.72605459    6955.9065    7745.1611    14701.068     13687.11 
   24500        122.5   0.50012542   0.70475554     7032.714    7681.1762     14713.89    13688.826 
   24600          123   0.50801067   0.73085489    6921.4397    7802.2819    14723.722    13690.542 
   24700        123.5   0.50223492   0.71737951    6861.9949     7713.575     14575.57    13692.256 
   24800          124   0.50067575   0.68433538     6874.195    7689.6284    14563.823    13693.968 
   24900        124.5   0.50284709    0.6288113    6854.1264    7722.9771    14577.104    13695.678 
   25000          125   0.50111567   0.66643127    6802.6615    7696.3851    14499.047    13697.387 
   25100        125.5   0.50164376   0.71184039    6877.9467    7704.4957    14582.442    13699.093 
   25200          126   0.50767028   0.73245499    6810.7951     7797.054    14607.849    13700.797 
   25300        126.5   0.50229414   0.63359686    6834.6548    7714.4846    14549.139    13702.498 
   25400          127   0.49971178   0.63600301     6932.595    7674.8234    14607.418    13704.198 
   25500        127.5   0.50708061   0.64248451    6883.5124    7787.9975     14671.51    13705.896 
   25600          128   0.50543177   0.67083542     6869.328    7762.6738    14632.002    13707.591 
   25700        128.5   0.50096348   0.65939625    6787.3808    7694.0477    14481.429    13709.284 
   25800          129   0.49643724   0.67482329    6766.0688    7624.5313      14390.6    13710.974 
   25900        129.5   0.49884672    0.6144839    6873.3919    7661.5373    14534.929    13712.662 
   26000          130   0.50115644   0.65957462    6857.4952    7697.0112    14554.506    13714.348 
   26100        130.5   0.50011786   0.73785253    6888.1455    7681.0602    14569.206    13716.032 
   26200          131   0.50078596   0.71560759    6932.7304    7691.3212    14624.052    13717.713 
   26300        131.5    0.5054654   0.71503209    6913.2914    7763.1903    14676.482    13719.391 
   26400          132   0.50267278    0.7111415    6964.4568    7720.2998    14684.757    13721.067 
   26500        132.5   0.50693212   0.73286067    6896.8095    7785.7169    14682.526     13722.74 
   26600          133    0.5073316   0.68044765    6840.3153    7791.8524    14632.168    13724.412 
   26700        133.5   0.50452457   0.59202049    6831.4518    7748.7406    14580.192     13726.08 
   26800          134   0.49807359   0.60899216    7020.5185    7649.6632    14670.182    13727.745 
   26900        134.5   0.50407168   0.76395782    6795.1109    7741.7849    14536.896    13729.408 
   27000          135    0.5006534   0.71958872    6930.5536    7689.2853    14619.839    13731.067 
   27100        135.5   0.49800418   0.62564659    6863.2342    7648.5972    14511.831    13732.724 
   27200          136   0.49889515   0.75816719    6826.8876    7662.2811    14489.169    13734.378 
   27300        136.5   0.49671325   0.72324948    6812.7307    7628.7705    14441.501    13736.028 
   27400          137   0.49499197   0.59399903    6770.1711    7602.3341    14372.505    13737.676 
   27500        137.5   0.49504917   0.62084091    6761.6173    7603.2127     14364.83    13739.321 
   27600          138   0.49777057   0.70176018    6841.8345    7645.0093    14486.844    13740.963 
   27700        138.5   0.49777313   0.74144855    6848.0949    7645.0486    14493.143    13742.602 
   27800          139   0.50566478   0.62913099     6838.689    7766.2525    14604.941    13744.239 
   27900        139.5   0.50229095   0.73831375    6912.6645    7714.4356      14627.1    13745.872 
   28000          140   0.49951723   0.68398758    6842.1199    7671.8354    14513.955    13747.503 
   28100        140.5   0.49968262   0.61591017    6806.6496    7674.3754    14481.025    13749.131 
   28200          141   0.50063429   0.67733976    6870.4861    7688.9917    14559.478    13750.756 
   28300        141.5   0.50084204   0.65226597     6917.262    7692.1824    14609.444    13752.378 
   28400          142   0.50339034   0.64061884    6789.2793    7731.3205      14520.6    13753.996 
   28500        142.5   0.50082731    0.6462511    6824.5152    7691.9562    14516.471    13755.612 
   28600          143   0.50247935   0.70271067    6935.0689    7717.3291    14652.398    13757.225 
   28700        143.5   0.50505268   0.84236776    6789.3926    7756.8516    14546.244    13758.835 
   28800          144   0.49590714   0.64950283    6823.9972    7616.3898    14440.387    13760.443 
   28900        144.5   0.50072574   0.59021166    6852.7798    7690.3963    14543.176    13762.047 
   29000          145    0.4976038   0.64924563    6886.2336    7642.4479    14528.681    13763.649 
   29100        145.5   0.50844313   0.71131774    6818.0518    7808.9238    14626.976    13765.248 
   29200          146   0.50469019   0.64408627    6819.6314    7751.2842    14570.916    13766.844 
   29300        146.5   0.50058136   0.61501811    6824.6277    7688.1788    14512.807    13768.438 
   29400          147   0.49382691    0.7101148    6802.2915    7584.4406    14386.732    13770.028 
   29500        147.5   0.49838524   0.70446785     6831.551    7654.4497    14486.001    13771.616 
   29600          148   0.49226265   0.66402852     6857.609    7560.4159    14418.025    13773.201 
   29700        148.5   0.49716687   0.67717553    6848.6742    7635.7374    14484.412    13774.783 
   29800          149   0.49876742   0.59208306    6861.9066    7660.3194    14522.226    13776.363 
   29900        149.5   0.50042217   0.63879804    6871.3878    7685.7339    14557.122    13777.939 
   30000          150   0.50156259   0.68207344    6832.1194    7703.2491    14535.369    13779.512 
Loop time of 83.9086 on 1 procs for 30000 steps with 10240 atoms

Performance: 154453.860 tau/day, 357.532 timesteps/s
97.7% CPU use with 1 MPI tasks x 1 OpenMP threads

MPI task timing breakdown:
Section |  min time  |  avg time  |  max time  |%varavg| %total
---------------------------------------------------------------
Pair    | 11.901     | 11.901     | 11.901     |   0.0 | 14.18
Bond    | 25.706     | 25.706     | 25.706     |   0.0 | 30.64
Neigh   | 16.609     | 16.609     | 16.609     |   0.0 | 19.79
Comm    | 3.8306     | 3.8306     | 3.8306     |   0.0 |  4.57
Output  | 1.0797     | 1.0797     | 1.0797     |   0.0 |  1.29
Modify  | 23.753     | 23.753     | 23.753     |   0.0 | 28.31
Other   |            | 1.03       |            |       |  1.23

Nlocal:    10240 ave 10240 max 10240 min
Histogram: 1 0 0 0 0 0 0 0 0 0
Nghost:    5840 ave 5840 max 5840 min
Histogram: 1 0 0 0 0 0 0 0 0 0
Neighs:    38072 ave 38072 max 38072 min
Histogram: 1 0 0 0 0 0 0 0 0 0

Total # of neighbors = 38072
Ave neighs/atom = 3.71797
Ave special neighs/atom = 4.8
Neighbor list builds = 2623
Dangerous builds = 414

unfix 2
unfix 3
fix 4 all nve
fix 5 all langevin ${T} ${T} 1 123456
fix 5 all langevin 0.5 ${T} 1 123456
fix 5 all langevin 0.5 0.5 1 123456
fix recen1 all recenter INIT INIT INIT


# RUN
run ${run_steps}
run 1500000
Per MPI rank memory allocation (min/avg/max) = 16.42 | 16.42 | 16.42 Mbytes
Step Time Temp Press PotEng KinEng TotEng Volume 
   30000          150   0.50156259   0.68207344    6832.1194    7703.2491    14535.369    13779.512 
   30100        150.5   0.50154207   0.71386632     6849.559    7702.9339    14552.493    13779.512 
   30200          151     0.502746   0.70262015    6850.8536    7721.4244    14572.278    13779.512 
   30300        151.5   0.49738926   0.67629057    6896.0592     7639.153    14535.212    13779.512 
   30400          152   0.50026293    0.6696636    6826.1616    7683.2883     14509.45    13779.512 
   30500        152.5   0.49905832   0.68072261    6880.2271    7664.7871    14545.014    13779.512 
   30600          153   0.49620507   0.65145811     6921.865    7620.9655     14542.83    13779.512 
   30700        153.5   0.50052318   0.73148617    6845.4985    7687.2852    14532.784    13779.512 
   30800          154   0.49689699    0.6723645    6931.3739    7631.5924    14562.966    13779.512 
   30900        154.5    0.4988264   0.65163524    6864.5649    7661.2253     14525.79    13779.512 
   31000          155   0.49315555   0.69470711    6834.4996    7574.1295    14408.629    13779.512 
   31100        155.5   0.50055182   0.67131879    6886.7347    7687.7251     14574.46    13779.512 
   31200          156   0.50415084   0.72491813    6939.9748    7743.0007    14682.975    13779.512 
   31300        156.5   0.49481008   0.66852951    6978.7772    7599.5406    14578.318    13779.512 
   31400          157   0.50125974   0.61845644    6846.9122    7698.5978     14545.51    13779.512 
   31500        157.5   0.49706636   0.68673974    6959.1852    7634.1936    14593.379    13779.512 
   31600          158   0.50286121   0.69192925    6934.0252    7723.1938    14657.219    13779.512 
   31700        158.5   0.49752319   0.65987576    6908.9093      7641.21    14550.119    13779.512 
   31800          159   0.50245873   0.72052412    6895.8767    7717.0124    14612.889    13779.512 
   31900        159.5   0.50395691    0.6960062    6920.5385    7740.0222    14660.561    13779.512 
   32000          160   0.50226362   0.73036265    6917.1816    7714.0158    14631.197    13779.512 
   32100        160.5   0.49964795   0.71577581    6803.5165     7673.843    14477.359    13779.512 
   32200          161   0.50033442   0.73345654    6959.8781    7684.3861    14644.264    13779.512 
   32300        161.5   0.49985676    0.6868649    6901.6015    7677.0501    14578.652    13779.512 
   32400          162   0.49789302   0.63329645    6938.0218      7646.89    14584.912    13779.512 
   32500        162.5   0.50380709   0.68829627    6885.2557    7737.7211    14622.977    13779.512 
   32600          163   0.49974922   0.69700913    6943.7506    7675.3985    14619.149    13779.512 
   32700        163.5    0.5086777   0.66575368    6836.5441    7812.5264     14649.07    13779.512 
   32800          164   0.50113642   0.70325852    6885.2381    7696.7038    14581.942    13779.512 
   32900        164.5   0.50653057   0.65980364    6801.7022    7779.5498    14581.252    13779.512 
   33000          165   0.49951868   0.68177524    6863.0114    7671.8577    14534.869    13779.512 
   33100        165.5   0.50380477   0.72340104    6871.5291    7737.6856    14609.215    13779.512 
   33200          166   0.50380451   0.65432361    6995.4521    7737.6816    14733.134    13779.512 
   33300        166.5   0.50595051   0.66185576    6892.3972    7770.6408    14663.038    13779.512 
   33400          167   0.50785437   0.72345749    6905.4496    7799.8813    14705.331    13779.512 
   33500        167.5   0.50706838   0.63682955    6866.7244    7787.8098    14654.534    13779.512 
   33600          168   0.50265427   0.64821794    6905.2354    7720.0157    14625.251    13779.512 
   33700        168.5   0.49694137   0.69445052    6883.4478     7632.274    14515.722    13779.512 
   33800          169   0.49860328   0.75944731    6809.3555    7657.7985    14467.154    13779.512 
   33900        169.5   0.49498522   0.73292861    6821.2645    7602.2305    14423.495    13779.512 
   34000          170   0.49572518   0.61550253    6783.1255    7613.5951    14396.721    13779.512 
   34100        170.5   0.49360132   0.65498889    6915.1861    7580.9759    14496.162    13779.512 
   34200          171   0.49385714   0.69411835    6772.4168    7584.9048    14357.322    13779.512 
   34300        171.5   0.49173612   0.75919588    6769.3908    7552.3292     14321.72    13779.512 
   34400          172   0.49434921   0.69709296    6837.7529    7592.4624    14430.215    13779.512 
   34500        172.5   0.49622169   0.66181419    6768.8861    7621.2209    14390.107    13779.512 
   34600          173   0.48942955   0.74383431    6888.5152    7516.9037    14405.419    13779.512 
   34700        173.5   0.50059311   0.73647447    6782.3272    7688.3593    14470.687    13779.512 
   34800          174   0.49361362   0.65108545    6952.6332    7581.1647    14533.798    13779.512 
   34900        174.5   0.49900479   0.63472143    6898.5277    7663.9651    14562.493    13779.512 
   35000          175   0.50582332   0.60904791    6831.3532    7768.6874    14600.041    13779.512 
   35100        175.5   0.49684074   0.71877274    6870.8726    7630.7285    14501.601    13779.512 
   35200          176   0.49548769   0.65254992      6985.48    7609.9477    14595.428    13779.512 
   35300        176.5   0.49810096   0.60350298    6918.4174    7650.0836    14568.501    13779.512 
   35400          177   0.49706455   0.74303863    6860.0486    7634.1659    14494.215    13779.512 
   35500        177.5   0.50019731   0.68710978    6849.4107    7682.2804    14531.691    13779.512 
   35600          178   0.50096368   0.61839418    6855.0873    7694.0507    14549.138    13779.512 
   35700        178.5   0.49509041   0.62691489    6874.3201    7603.8461    14478.166    13779.512 
   35800          179   0.49393763   0.55325152    6878.0236    7586.1411    14464.165    13779.512 
   35900        179.5   0.49597725    0.6825711    6840.9677    7617.4667    14458.434    13779.512 
   36000          180   0.49877897   0.65441884    6756.6168    7660.4969    14417.114    13779.512 
   36100        180.5   0.48809775   0.64413251    6811.7008    7496.4493     14308.15    13779.512 
   36200          181   0.49209877   0.70385916     6821.792     7557.899    14379.691    13779.512 
   36300        181.5   0.49483174   0.69062818    6734.9253    7599.8734    14334.799    13779.512 
   36400          182   0.50013939   0.62372809    6809.6015    7681.3908    14490.992    13779.512 
   36500        182.5   0.49294679   0.69410165    6899.5814    7570.9233    14470.505    13779.512 
   36600          183    0.4963628   0.75908837    6907.6212    7623.3881    14531.009    13779.512 
   36700        183.5   0.49927375   0.62597753    6937.9862    7668.0958    14606.082    13779.512 
   36800          184   0.50026117   0.67881646    6894.6652    7683.2611    14577.926    13779.512 
   36900        184.5   0.50521992   0.69630678    6766.6161    7759.4202    14526.036    13779.512 
   37000          185   0.50288744   0.69456395    6821.3866    7723.5967    14544.983    13779.512 
   37100        185.5   0.49922762   0.62730571    6810.4318    7667.3875    14477.819    13779.512 
   37200          186   0.49872869   0.69644413     6930.552    7659.7246    14590.277    13779.512 
   37300        186.5   0.49244399   0.78442024    6853.6204     7563.201    14416.821    13779.512 
   37400          187   0.49492407   0.68721365    6758.1098    7601.2914    14359.401    13779.512 
   37500        187.5   0.49590222   0.69041719    6796.5365    7616.3143    14412.851    13779.512 
   37600          188   0.49554449   0.66082531    6853.7354      7610.82    14464.555    13779.512 
   37700        188.5   0.50371518   0.69723977    6837.1306    7736.3095     14573.44    13779.512 
   37800          189   0.49204222   0.64810279     6894.249    7557.0305    14451.279    13779.512 
   37900        189.5   0.49045569   0.66200612     6938.863    7532.6637    14471.527    13779.512 
   38000          190   0.49332554   0.70423912    6842.3075    7576.7403    14419.048    13779.512 
   38100        190.5   0.49923482   0.69399833    6769.9469     7667.498    14437.445    13779.512 
   38200          191   0.49788187   0.70169663    6770.3748    7646.7186    14417.093    13779.512 
   38300        191.5   0.50080956   0.72593621    6850.0406    7691.6836    14541.724    13779.512 
   38400          192   0.50483759   0.64380362    6814.4896    7753.5482    14568.038    13779.512 
   38500        192.5   0.49771261   0.62568353    6823.9789     7644.119    14468.098    13779.512 
   38600          193   0.49811243   0.69598155    6870.7188    7650.2597    14520.978    13779.512 
   38700        193.5   0.50160269   0.69958532    6769.3823    7703.8649    14473.247    13779.512 
   38800          194   0.49851821   0.67036355    6868.7114     7656.492    14525.203    13779.512 
   38900        194.5   0.50076908    0.6610415    6782.3712    7691.0619    14473.433    13779.512 
   39000          195   0.50005472   0.63757414    6899.4329    7680.0904    14579.523    13779.512 
   39100        195.5   0.50013678   0.71247852    6787.5466    7681.3508    14468.897    13779.512 
   39200          196   0.50372063   0.70872996    6777.0081    7736.3933    14513.401    13779.512 
   39300        196.5   0.50718051   0.67775697    6840.1858    7789.5318    14629.718    13779.512 
   39400          197     0.506147   0.68376054    6891.2108    7773.6587    14664.869    13779.512 
   39500        197.5   0.50489647   0.66312254    6915.3896    7754.4524    14669.842    13779.512 
   39600          198   0.50225152   0.61037292    6957.5456    7713.8299    14671.376    13779.512 
   39700        198.5   0.49984489   0.65703491    6919.1596    7676.8678    14596.027    13779.512 
   39800          199   0.50426054   0.67905082    6889.5679    7744.6854    14634.253    13779.512 
   39900        199.5   0.50236317   0.70632184     6846.315    7715.5447     14561.86    13779.512 
   40000          200   0.49876982   0.72283167    6933.4729    7660.3563    14593.829    13779.512 
   40100        200.5   0.49757111   0.65101642    6867.6964    7641.9459    14509.642    13779.512 
   40200          201   0.49088021   0.70030773    6958.0326    7539.1837    14497.216    13779.512 
   40300        201.5   0.50029811   0.72018108    6899.5604    7683.8285    14583.389    13779.512 
   40400          202   0.49913422   0.66802543    6961.4617    7665.9529    14627.415    13779.512 
   40500        202.5   0.49683112   0.66594614    6868.3331    7630.5808    14498.914    13779.512 
   40600          203   0.49593338   0.58234799    6795.1118    7616.7928    14411.905    13779.512 
   40700        203.5   0.50090278    0.6896187    6885.0476    7693.1153    14578.163    13779.512 
   40800          204   0.49933968   0.77468199    7010.6985    7669.1085    14679.807    13779.512 
   40900        204.5   0.50652916    0.7938109    6869.8545     7779.528    14649.383    13779.512 
   41000          205   0.49924617   0.74709118    6873.0097    7667.6723    14540.682    13779.512 
   41100        205.5   0.49868084   0.63280827    6961.7068    7658.9897    14620.697    13779.512 
   41200          206   0.50350169   0.66435115    6747.6544    7733.0307    14480.685    13779.512 
   41300        206.5   0.49518853   0.59998774    6813.8455    7605.3531    14419.199    13779.512 
   41400          207   0.49540058   0.67309226    6847.2174    7608.6097    14455.827    13779.512 
   41500        207.5   0.49942912   0.72279733    6862.4285    7670.4821    14532.911    13779.512 
   41600          208   0.50211337   0.74047286    6890.5869    7711.7082    14602.295    13779.512 
   41700        208.5   0.50547418   0.66422457    6866.3295    7763.3252    14629.655    13779.512 
   41800          209   0.50718882   0.58648147    6838.9354    7789.6595    14628.595    13779.512 
   41900        209.5   0.50515908   0.75547597    6983.5011    7758.4857    14741.987    13779.512 
   42000          210   0.50778451   0.75418718    6915.6055    7798.8084    14714.414    13779.512 
   42100        210.5   0.49811831   0.72014649    6980.1055      7650.35    14630.456    13779.512 
   42200          211    0.5072319   0.63958084     6834.345    7790.3211    14624.666    13779.512 
   42300        211.5    0.5018593   0.65513643    6904.9596     7707.806    14612.766    13779.512 
   42400          212   0.50572112    0.6621329    6839.1632    7767.1179    14606.281    13779.512 
   42500        212.5   0.50049183   0.65624862    6852.9918    7686.8038    14539.796    13779.512 
   42600          213   0.50075236    0.7241231    6837.0128    7690.8051    14527.818    13779.512 
   42700        213.5   0.50200272   0.71777574    6791.2929    7710.0087    14501.302    13779.512 
   42800          214   0.50147243   0.75262655    6927.1031    7701.8643    14628.967    13779.512 
   42900        214.5   0.49905275   0.74259917    6900.0738    7664.7016    14564.775    13779.512 
   43000          215   0.50348398   0.57646665    6776.4304    7732.7587    14509.189    13779.512 
   43100        215.5   0.50212738   0.68081224    6953.4902    7711.9234    14665.414    13779.512 
   43200          216   0.49735211   0.71195475    6986.7758    7638.5824    14625.358    13779.512 
   43300        216.5   0.50200846   0.71231576    6928.9218    7710.0969    14639.019    13779.512 
   43400          217   0.50554196   0.73443107    6873.1409    7764.3661    14637.507    13779.512 
   43500        217.5   0.50013874   0.68381343     6814.428    7681.3808    14495.809    13779.512 
   43600          218   0.50374425   0.70896708    6812.3173    7736.7561    14549.073    13779.512 
   43700        218.5   0.50078513    0.6358802    6849.6221    7691.3084     14540.93    13779.512 
   43800          219    0.4957231   0.59797554    6824.7202    7613.5633    14438.283    13779.512 
   43900        219.5   0.49718103    0.7156177    6853.6572    7635.9548    14489.612    13779.512 
   44000          220   0.50221194   0.73107743    6812.4847    7713.2222    14525.707    13779.512 
   44100        220.5    0.5020876    0.6773802    6781.0636    7711.3125    14492.376    13779.512 
   44200          221   0.50145846   0.65812374    6798.6766    7701.6498    14500.326    13779.512 
   44300        221.5   0.49695399    0.7450114    6796.1172    7632.4679    14428.585    13779.512 
   44400          222   0.50203089    0.7879838    6748.1153    7710.4414    14458.557    13779.512 
   44500        222.5    0.4999125   0.62883871    6764.6923    7677.9061    14442.598    13779.512 
   44600          223   0.49602246    0.7247018    6889.9445    7618.1609    14508.105    13779.512 
   44700        223.5   0.50591181    0.6745656    6767.8982    7770.0465    14537.945    13779.512 
   44800          224   0.50180176   0.72059532    6948.2181    7706.9223     14655.14    13779.512 
   44900        224.5   0.50266889   0.64687549    6902.4857    7720.2401    14622.726    13779.512 
   45000          225   0.50556482   0.66151162    6965.4198    7764.7173    14730.137    13779.512 
   45100        225.5   0.50381807   0.69522246    6785.1293    7737.8898    14523.019    13779.512 
   45200          226   0.49705665   0.72072151    6806.5463    7634.0445    14440.591    13779.512 
   45300        226.5   0.49614498   0.74945631    6782.8179    7620.0427    14402.861    13779.512 
   45400          227   0.49715751   0.66246777    6721.1372    7635.5937    14356.731    13779.512 
   45500        227.5   0.49904365   0.60737951     6744.464    7664.5619    14409.026    13779.512 
   45600          228   0.49940209   0.65391345     6901.519     7670.067    14571.586    13779.512 
   45700        228.5   0.50731899   0.61433519    6854.8874    7791.6587    14646.546    13779.512 
   45800          229   0.50323741   0.70158874    6871.4308    7728.9717    14600.403    13779.512 
   45900        229.5    0.5056594   0.69443101    6907.0902    7766.1698     14673.26    13779.512 
   46000          230   0.50150918    0.7315169    6836.3238    7702.4288    14538.753    13779.512 
   46100        230.5   0.50052962   0.71388035    6880.2836    7687.3842    14567.668    13779.512 
   46200          231   0.50725243   0.63273609    6844.3385    7790.6365    14634.975    13779.512 
   46300        231.5   0.49896595   0.71047449    6851.7723    7663.3685    14515.141    13779.512 
   46400          232   0.49815658   0.62120712    6848.5892    7650.9379    14499.527    13779.512 
   46500        232.5   0.50329975   0.64609796    6809.7015    7729.9292    14539.631    13779.512 
   46600          233   0.49690318   0.63128054    6692.3432    7631.6875    14324.031    13779.512 
   46700        233.5   0.49330796   0.72217817    6869.3161    7576.4704    14445.786    13779.512 
   46800          234   0.49659404   0.66215648    6802.5402    7626.9395     14429.48    13779.512 
   46900        234.5    0.5000232    0.5636034    6837.1263    7679.6063    14516.733    13779.512 
   47000          235   0.50202806   0.52493952    6834.9831    7710.3979    14545.381    13779.512 
   47100        235.5   0.49813329   0.65025102    6871.3775    7650.5802    14521.958    13779.512 
   47200          236   0.49059235   0.77579332    6880.3042    7534.7626    14415.067    13779.512 
   47300        236.5   0.49807426   0.73123386    6779.6564    7649.6735     14429.33    13779.512 
   47400          237   0.49376226   0.64359704    6880.7914    7583.4477    14464.239    13779.512 
   47500        237.5    0.4925048   0.60055759    6854.0045     7564.135     14418.14    13779.512 
   47600          238   0.49285998   0.73983501    6931.9002      7569.59     14501.49    13779.512 
   47700        238.5   0.49958383   0.71240761    6917.4905    7672.8583    14590.349    13779.512 
   47800          239   0.50074315   0.64312341     6879.849    7690.6637    14570.513    13779.512 
   47900        239.5   0.49901248   0.63806684    6863.8541    7664.0831    14527.937    13779.512 
   48000          240   0.49404864   0.66192593    6860.2114    7587.8461    14448.057    13779.512 
   48100        240.5   0.50213719   0.69248766    6775.1812    7712.0741    14487.255    13779.512 
   48200          241   0.49982844   0.65075991    6841.8251    7676.6151     14518.44    13779.512 
   48300        241.5    0.4977334   0.61277096     6883.157    7644.4384    14527.595    13779.512 
   48400          242   0.49337781   0.63222346    6841.2992    7577.5431    14418.842    13779.512 
   48500        242.5   0.50034053   0.70813777     6788.225      7684.48    14472.705    13779.512 
   48600          243   0.49250806   0.72337859    6892.7367     7564.185    14456.922    13779.512 
   48700        243.5   0.49845338   0.64053399    6854.9818    7655.4963    14510.478    13779.512 
   48800          244   0.50035756   0.65578985    6881.2169    7684.7416    14565.958    13779.512 
   48900        244.5   0.49509479   0.66716188    6897.7598    7603.9133    14501.673    13779.512 
   49000          245   0.49689368   0.75274757    6974.0937    7631.5416    14605.635    13779.512 
   49100        245.5   0.50492786   0.72357522    6808.1638    7754.9346    14563.098    13779.512 
   49200          246   0.50289695   0.62785556    6871.8638    7723.7428    14595.607    13779.512 
   49300        246.5   0.49202862   0.56990559    6897.2304    7556.8216    14454.052    13779.512 
   49400          247   0.49440399   0.62406118    6770.5058    7593.3036    14363.809    13779.512 
   49500        247.5    0.4974124   0.75856342    6837.1286    7639.5083    14476.637    13779.512 
   49600          248   0.49601185   0.63341266    6869.2132    7617.9979    14487.211    13779.512 
   49700        248.5   0.49216419   0.62885808     6828.381    7558.9036    14387.285    13779.512 
   49800          249   0.49244784   0.65856666    6776.7684    7563.2601    14340.028    13779.512 
   49900        249.5   0.49218247   0.69624285    6818.1115    7559.1845    14377.296    13779.512 
   50000          250   0.49875329    0.7044003    6722.5849    7660.1025    14382.687    13779.512 
   50100        250.5   0.48876876   0.69426515    6861.8749     7506.755     14368.63    13779.512 
   50200          251   0.49816445   0.66375459    6766.7035    7651.0587    14417.762    13779.512 
   50300        251.5   0.49813547   0.62825705    6925.0141    7650.6137    14575.628    13779.512 
   50400          252   0.50353148   0.73397772    6768.0638    7733.4883    14501.552    13779.512 
   50500        252.5   0.50546362   0.67503155     6739.522     7763.163    14502.685    13779.512 
   50600          253   0.50242008   0.57913678    6934.3561    7716.4187    14650.775    13779.512 
   50700        253.5   0.49810945   0.67677938    6848.7883     7650.214    14499.002    13779.512 
   50800          254   0.50478243    0.6442888    6853.8112    7752.7009    14606.512    13779.512 
   50900        254.5   0.49736923   0.67821936    6922.1439    7638.8453    14560.989    13779.512 
   51000          255   0.50352135   0.68503647    6881.4947    7733.3327    14614.827    13779.512 
   51100        255.5   0.50035027   0.67583131    6785.7363    7684.6296    14470.366    13779.512 
   51200          256   0.49746536   0.65228906    6891.7739    7640.3218    14532.096    13779.512 
   51300        256.5   0.50131689   0.64753827    6884.9549    7699.4755     14584.43    13779.512 
   51400          257   0.50276097   0.63602953     6831.488    7721.6544    14553.142    13779.512 
   51500        257.5     0.502132   0.66146453    7001.0415    7711.9944    14713.036    13779.512 
   51600          258   0.49781473   0.67757858    6914.2003    7645.6875    14559.888    13779.512 
   51700        258.5   0.49930355   0.62386793    6847.2508    7668.5535    14515.804    13779.512 
   51800          259   0.50139027   0.66074833     6826.647    7700.6025     14527.25    13779.512 
   51900        259.5   0.49916571   0.65880599    6925.0862    7666.4365    14591.523    13779.512 
   52000          260   0.49836775   0.55643593    6874.6962     7654.181    14528.877    13779.512 
   52100        260.5   0.50029511   0.70488573    6911.4197    7683.7825    14595.202    13779.512 
   52200          261   0.50043035   0.73781351     6860.641    7685.8596    14546.501    13779.512 
   52300        261.5   0.49936158   0.66151493    6816.9254    7669.4449     14486.37    13779.512 
   52400          262   0.49763834   0.60159811    6915.3243    7642.9784    14558.303    13779.512 
   52500        262.5   0.49923578    0.6148338    6828.4706    7667.5128    14495.983    13779.512 
   52600          263   0.50018522   0.78410447    6834.6604    7682.0948    14516.755    13779.512 
   52700        263.5   0.49973947   0.67892245    6830.1551    7675.2487    14505.404    13779.512 
   52800          264   0.50462887   0.69233744    6842.6834    7750.3425    14593.026    13779.512 
   52900        264.5   0.50007189   0.70925442     6837.567    7680.3542    14517.921    13779.512 
   53000          265   0.49527735   0.72163218    6870.4465    7606.7172    14477.164    13779.512 
   53100        265.5   0.50974075   0.70558977    6920.2451    7828.8533    14749.098    13779.512 
   53200          266     0.502744    0.6951064    6922.0699    7721.3938    14643.464    13779.512 
   53300        266.5   0.50351827   0.68879246    6892.5807    7733.2853    14625.866    13779.512 
   53400          267   0.49839367   0.73691175    6887.8855    7654.5792    14542.465    13779.512 
   53500        267.5   0.50626161   0.73918357    6847.3687     7775.419    14622.788    13779.512 
   53600          268   0.50278283   0.57216382    6791.7704      7721.99     14513.76    13779.512 
   53700        268.5   0.50225233   0.65222039    6870.3654    7713.8424    14584.208    13779.512 
   53800          269   0.50738299   0.66533709     6882.608    7792.6416     14675.25    13779.512 
   53900        269.5   0.50484333   0.67369162    6826.0433    7753.6364     14579.68    13779.512 
   54000          270   0.50416799   0.61779048    6855.2378     7743.264    14598.502    13779.512 
   54100        270.5   0.50215929   0.76310698    6879.1153    7712.4135    14591.529    13779.512 
   54200          271    0.5044654   0.72684642    6907.5502    7747.8318    14655.382    13779.512 
   54300        271.5   0.50282397   0.55518056    6913.1349     7722.622    14635.757    13779.512 
   54400          272   0.50269617   0.73494473    6907.1455    7720.6592    14627.805    13779.512 
   54500        272.5    0.4984996   0.74425599    6908.0075     7656.206    14564.214    13779.512 
   54600          273    0.4993236   0.69628092    6875.4079    7668.8616    14544.269    13779.512 
   54700        273.5   0.50215501   0.70207004    6822.1209    7712.3477    14534.469    13779.512 
   54800          274   0.49557033   0.58188071    6895.3248    7611.2168    14506.542    13779.512 
   54900        274.5   0.49986605   0.62376322    6894.9762    7677.1927    14572.169    13779.512 
   55000          275   0.50289295   0.65402645    6862.7004    7723.6813    14586.382    13779.512 
   55100        275.5   0.50613684   0.75252516    6905.5227    7773.5026    14679.025    13779.512 
   55200          276   0.50734173   0.77815076    6925.4176    7792.0079    14717.425    13779.512 
   55300        276.5   0.50278708   0.68744964    6825.4002    7722.0553    14547.455    13779.512 
   55400          277   0.49833231   0.52624766    6942.1344    7653.6367    14595.771    13779.512 
   55500        277.5   0.50321444   0.57924895    6834.6626    7728.6189    14563.282    13779.512 
   55600          278   0.49970708   0.68717034    6826.9564    7674.7511    14501.707    13779.512 
   55700        278.5   0.49689283   0.66122859    6836.5413    7631.5285     14468.07    13779.512 
   55800          279    0.5023743   0.63734456    6779.7443    7715.7157     14495.46    13779.512 
   55900        279.5   0.50179298   0.68017147    6801.3204    7706.7874    14508.108    13779.512 
   56000          280   0.50098313   0.67313987    6820.8966    7694.3493    14515.246    13779.512 
   56100        280.5   0.49969394   0.72809971    6880.6182    7674.5494    14555.168    13779.512 
   56200          281   0.49465823   0.69831513     6919.572    7597.2085     14516.78    13779.512 
   56300        281.5   0.49889659    0.7281783    6823.6394    7662.3033    14485.943    13779.512 
   56400          282   0.49821411   0.76459904    6785.1217    7651.8214    14436.943    13779.512 
   56500        282.5   0.49827978   0.68509567    6821.6527      7652.83    14474.483    13779.512 
   56600          283   0.50003598   0.68723199     6770.372    7679.8026    14450.175    13779.512 
   56700        283.5   0.49167517   0.65921173    6900.8559    7551.3931    14452.249    13779.512 
   56800          284   0.49593844   0.64667151    6813.9823    7616.8706    14430.853    13779.512 
   56900        284.5   0.50066442   0.75068352    6857.5075    7689.4545    14546.962    13779.512 
   57000          285   0.50130892   0.69344206    6856.5794    7699.3531    14555.932    13779.512 
   57100        285.5   0.49546305   0.62574153     6875.571    7609.5692     14485.14    13779.512 
   57200          286   0.49439552   0.61575235    6917.8312    7593.1736    14511.005    13779.512 
   57300        286.5   0.50225106    0.7567398    6883.7377    7713.8229    14597.561    13779.512 
   57400          287   0.49950068   0.70017507     6889.878    7671.5812    14561.459    13779.512 
   57500        287.5   0.50073514   0.64317289     6891.132    7690.5407    14581.673    13779.512 
   57600          288   0.50366854   0.63222287    6784.1982    7735.5933    14519.791    13779.512 
   57700        288.5   0.50227824   0.72987198    6892.5079    7714.2404    14606.748    13779.512 
   57800          289   0.49882474   0.68583502    6835.8822    7661.1997    14497.082    13779.512 
   57900        289.5    0.5073783   0.71492275    6818.4783    7792.5696    14611.048    13779.512 
   58000          290   0.50111516   0.67629312    6850.1447    7696.3772    14546.522    13779.512 
   58100        290.5   0.50148181   0.59153801    6849.1806    7702.0085    14551.189    13779.512 
   58200          291   0.50088808   0.66004693    6809.3496    7692.8895    14502.239    13779.512 
   58300        291.5   0.50358829   0.61650042    6814.2173    7734.3608    14548.578    13779.512 
   58400          292   0.49397267   0.63366271    6877.2487    7586.6793    14463.928    13779.512 
   58500        292.5   0.49759762   0.61695034    6819.6442    7642.3531    14461.997    13779.512 
   58600          293    0.4996342   0.71164856    6794.7225    7673.6318    14468.354    13779.512 
   58700        293.5   0.49368108   0.75981372    6822.9683    7582.2009    14405.169    13779.512 
   58800          294   0.49029001   0.72703289    6850.7651    7530.1192    14380.884    13779.512 
   58900        294.5   0.50089176   0.61552621    6730.3626    7692.9461    14423.309    13779.512 
   59000          295   0.50140282   0.60067826    6920.0915    7700.7952    14620.887    13779.512 
   59100        295.5   0.49658721   0.72997765    6930.3434    7626.8346    14557.178    13779.512 
   59200          296     0.500802   0.60334755    6908.0977    7691.5675    14599.665    13779.512 
   59300        296.5   0.50453373   0.72074538    6925.1299    7748.8813    14674.011    13779.512 
   59400          297   0.50443028   0.76090031     6902.062    7747.2924    14649.354    13779.512 
   59500        297.5   0.50603374   0.67342832    6825.9048    7771.9191    14597.824    13779.512 
   59600          298   0.50027601    0.6260424    6815.8466     7683.489    14499.336    13779.512 
   59700        298.5   0.49861362   0.64692198    6819.3035    7657.9572    14477.261    13779.512 
   59800          299   0.50051821   0.65164071    6894.9956    7687.2089    14582.205    13779.512 
   59900        299.5   0.50309667   0.62361358    6775.6828    7726.8102    14502.493    13779.512 
   60000          300   0.50064287   0.65289987    6909.4841    7689.1234    14598.608    13779.512 
   60100        300.5   0.50613097   0.70517894    6846.8519    7773.4125    14620.264    13779.512 
   60200          301   0.50472924   0.69063475    6807.4293     7751.884    14559.313    13779.512 
   60300        301.5   0.50396064   0.63080468    6790.8749    7740.0794    14530.954    13779.512 
   60400          302   0.50115967   0.69706031    6739.6068    7697.0608    14436.668    13779.512 
   60500        302.5   0.49659391    0.7342563    6812.7801    7626.9375    14439.718    13779.512 
   60600          303   0.50559768   0.68531231    6714.5203     7765.222    14479.742    13779.512 
   60700        303.5   0.50174708   0.58826958    6854.5071    7706.0826     14560.59    13779.512 
   60800          304   0.50001642   0.61794262    6857.5049    7679.5023    14537.007    13779.512 
   60900        304.5   0.49689924   0.71976568    6899.6192     7631.627    14531.246    13779.512 
   61000          305   0.50026749   0.62773356    6885.5265    7683.3582    14568.885    13779.512 
   61100        305.5   0.50175322   0.72950171    6866.1468    7706.1768    14572.324    13779.512 
   61200          306   0.50125045   0.63575284    6845.1415    7698.4551    14543.597    13779.512 
   61300        306.5   0.50054807    0.6853016    6843.5311    7687.6676    14531.199    13779.512 
   61400          307   0.49669879   0.71831435    6845.7315    7628.5484     14474.28    13779.512 
   61500        307.5   0.50092804   0.67107892    6852.0055    7693.5033    14545.509    13779.512 
   61600          308   0.50233749    0.6211908    6844.7253    7715.1503    14559.876    13779.512 
   61700        308.5   0.49634707   0.66543202    6790.9104    7623.1464    14414.057    13779.512 
   61800          309   0.49404361    0.6744619    6869.0759    7587.7688    14456.845    13779.512 
   61900        309.5   0.50183125   0.65558435    6822.0897    7707.3752    14529.465    13779.512 
   62000          310   0.49350459   0.62866926     6906.117    7579.4903    14485.607    13779.512 
   62100        310.5   0.50086883   0.71447729    6777.4447     7692.594    14470.039    13779.512 
   62200          311   0.50610964   0.61143076    6797.7837    7773.0849    14570.869    13779.512 
   62300        311.5   0.50383778   0.57849635    6772.9744    7738.1925    14511.167    13779.512 
   62400          312   0.50092251   0.66792547    6890.4508    7693.4184    14583.869    13779.512 
   62500        312.5   0.49877234   0.66605614    6789.5467     7660.395    14449.942    13779.512 
   62600          313   0.49587615   0.64962115    6794.0494    7615.9139    14409.963    13779.512 
   62700        313.5   0.49763323   0.65005476    6721.9198    7642.8999     14364.82    13779.512 
   62800          314   0.49710492   0.66963464    6757.9354    7634.7858    14392.721    13779.512 
   62900        314.5   0.49690858   0.65021292    6883.1948    7631.7704    14514.965    13779.512 
   63000          315   0.50135231   0.62899537    6755.9473    7700.0194    14455.967    13779.512 
   63100        315.5   0.49524946   0.73151872    6804.1406    7606.2889    14410.429    13779.512 
   63200          316   0.49735278   0.63725974    6878.7453    7638.5927    14517.338    13779.512 
   63300        316.5   0.50137095   0.65352951    6872.4694    7700.3058    14572.775    13779.512 
   63400          317   0.50362604    0.6348023    6858.1784    7734.9406    14593.119    13779.512 
   63500        317.5   0.49889929   0.71651468    6911.3012    7662.3448    14573.646    13779.512 
   63600          318   0.50343015   0.71512698    6867.7309     7731.932    14599.663    13779.512 
   63700        318.5   0.50315652   0.64196465     6903.675    7727.7295    14631.404    13779.512 
   63800          319   0.49813469   0.69072898    6931.6747    7650.6017    14582.276    13779.512 
   63900        319.5   0.49774653   0.65993491    6861.9819    7644.6401    14506.622    13779.512 
   64000          320   0.49309639   0.64933105    6882.4567     7573.221    14455.678    13779.512 
   64100        320.5   0.49668719   0.67734806    6841.7415    7628.3703    14470.112    13779.512 
   64200          321   0.49092413   0.66198707    6901.4789    7539.8582    14441.337    13779.512 
   64300        321.5   0.48890215   0.66720264     6859.023    7508.8037    14367.827    13779.512 
   64400          322   0.49233423   0.71884831    6819.8677    7561.5153    14381.383    13779.512 
   64500        322.5   0.49515859   0.68813158     6862.941    7604.8932    14467.834    13779.512 
   64600          323   0.50202809   0.62296621    6745.2652    7710.3984    14455.664    13779.512 
   64700        323.5   0.49891884   0.63191316    6803.5544    7662.6451    14466.199    13779.512 
   64800          324    0.4980565    0.6688249    6864.4218    7649.4008    14513.823    13779.512 
   64900        324.5    0.4953287   0.71701682    6863.9935    7607.5058    14471.499    13779.512 
   65000          325   0.49780101   0.70800237    6833.3316    7645.4768    14478.808    13779.512 
   65100        325.5    0.4960518   0.62992359    6872.0973    7618.6116    14490.709    13779.512 
   65200          326   0.49653637   0.62359377    6867.1752    7626.0539    14493.229    13779.512 
   65300        326.5   0.50064311   0.62969584    6858.7015    7689.1272    14547.829    13779.512 
   65400          327   0.49653966   0.71226637    6907.9823    7626.1043    14534.087    13779.512 
   65500        327.5   0.50267552   0.63978117    6845.8251     7720.342    14566.167    13779.512 
   65600          328   0.50145985   0.77777545    6941.4048     7701.671    14643.076    13779.512 
   65700        328.5   0.49997639   0.72849367    6909.8385    7678.8873    14588.726    13779.512 
   65800          329   0.49967185   0.66901638    6905.8482    7674.2101    14580.058    13779.512 
   65900        329.5   0.50363656   0.63040656    6912.1877    7735.1021     14647.29    13779.512 
   66000          330   0.50026488    0.6355045    6981.2952    7683.3181    14664.613    13779.512 
   66100        330.5   0.49998028   0.67745187     6873.123    7678.9471     14552.07    13779.512 
   66200          331   0.49632003   0.69524116    6912.3323    7622.7312    14535.064    13779.512 
   66300        331.5   0.49845137   0.67807504    6818.6465    7655.4654    14474.112    13779.512 
   66400          332   0.49461025   0.61972245    6894.0092    7596.4716    14490.481    13779.512 
   66500        332.5   0.49227482   0.69400384    6851.0824    7560.6028    14411.685    13779.512 
   66600          333   0.49782842   0.64290303     6900.855    7645.8979    14546.753    13779.512 
   66700        333.5   0.49694557   0.63961807    6953.7081    7632.3385    14586.047    13779.512 
   66800          334   0.49953466   0.80570462    6852.5483    7672.1031    14524.651    13779.512 
   66900        334.5   0.49770503   0.69472394    6783.1357    7644.0028    14427.138    13779.512 
   67000          335   0.49443137   0.61635557     6802.353    7593.7242    14396.077    13779.512 
   67100        335.5   0.50293331   0.59723065    6746.4862    7724.3013    14470.788    13779.512 
   67200          336   0.50037454    0.7394954    6781.7412    7685.0023    14466.744    13779.512 
   67300        336.5    0.4916011   0.69333916    6822.7505    7550.2555    14373.006    13779.512 
   67400          337   0.49902625   0.67065722    6761.0936    7664.2947    14425.388    13779.512 
   67500        337.5    0.4939054   0.61104905    6781.5889    7585.6462    14367.235    13779.512 
   67600          338   0.49344744    0.7047554     6771.694    7578.6126    14350.307    13779.512 
   67700        338.5   0.49005109    0.7125664    6773.8862    7526.4497    14300.336    13779.512 
   67800          339   0.49468488   0.68071921    6763.1408    7597.6177    14360.758    13779.512 
   67900        339.5   0.49403512   0.60222794    6808.0304    7587.6384    14395.669    13779.512 
   68000          340   0.49645775   0.60012012    6860.5784    7624.8463    14485.425    13779.512 
   68100        340.5   0.50431449   0.63668883    6768.5514    7745.5141    14514.066    13779.512 
   68200          341   0.49867084   0.78275091    6904.5912    7658.8361    14563.427    13779.512 
   68300        341.5   0.49284449   0.72807998    6957.5762    7569.3521    14526.928    13779.512 
   68400          342   0.49888032    0.6394611    6879.3134    7662.0534    14541.367    13779.512 
   68500        342.5   0.49788034   0.74532548    6972.9469    7646.6953    14619.642    13779.512 
   68600          343   0.50352407   0.67727571    6816.8188    7733.3744    14550.193    13779.512 
   68700        343.5   0.50188615   0.62405799    6940.4989    7708.2184    14648.717    13779.512 
   68800          344   0.50147737    0.7969967    6923.8534    7701.9402    14625.794    13779.512 
   68900        344.5   0.50597288   0.69429296    6855.8539    7770.9846    14626.838    13779.512 
   69000          345   0.50539336   0.70115592    6872.2162     7762.084      14634.3    13779.512 
   69100        345.5    0.4996899   0.68430277    6857.9106    7674.4873    14532.398    13779.512 
   69200          346    0.4960766   0.68575914    6863.5143    7618.9925    14482.507    13779.512 
   69300        346.5   0.50061856   0.65335574    6809.4414    7688.7502    14498.192    13779.512 
   69400          347   0.49503911   0.63403325    6808.9124    7603.0581    14411.971    13779.512 
   69500        347.5    0.5021467   0.57666035    6870.3008    7712.2201    14582.521    13779.512 
   69600          348   0.49944493   0.65265012    6934.1732     7670.725    14604.898    13779.512 
   69700        348.5   0.49564973    0.6564879    7053.1226    7612.4364    14665.559    13779.512 
   69800          349    0.5053624   0.68800246    6938.2402    7761.6085    14699.849    13779.512 
   69900        349.5   0.50293987   0.64278999    6940.3387     7724.402    14664.741    13779.512 
   70000          350   0.50386482   0.59577281    7021.3394    7738.6079    14759.947    13779.512 
   70100        350.5   0.50100315   0.69964696    6926.5297    7694.6568    14621.187    13779.512 
   70200          351   0.50462001   0.71614602    6921.9355    7750.2064    14672.142    13779.512 
   70300        351.5   0.50155095   0.55867413    6909.8898    7703.0703     14612.96    13779.512 
   70400          352   0.49525402   0.62796524    6918.5878    7606.3589    14524.947    13779.512 
   70500        352.5   0.49861371   0.70398344    6842.1911    7657.9587     14500.15    13779.512 
   70600          353   0.49780336   0.67716408    6910.8146    7645.5129    14556.328    13779.512 
   70700        353.5    0.5062673   0.71179983    6788.0346    7775.5063    14563.541    13779.512 
   70800          354   0.49846323   0.76195482    6928.6172    7655.6475    14584.265    13779.512 
   70900        354.5    0.5044344   0.62899233    6904.2721    7747.3558    14651.628    13779.512 
   71000          355    0.5045552   0.61085059     6847.994     7749.211    14597.205    13779.512 
   71100        355.5   0.49885223    0.5894692    6843.7457     7661.622    14505.368    13779.512 
   71200          356   0.49161273   0.68962064    6914.8685    7550.4341    14465.303    13779.512 
   71300        356.5   0.50057982   0.70241535    6773.8392    7688.1552    14461.994    13779.512 
   71400          357   0.50395241   0.65420839    6827.8386    7739.9531    14567.792    13779.512 
   71500        357.5   0.49564517   0.68201715    6906.2609    7612.3664    14518.627    13779.512 
   71600          358   0.50475873   0.70169679     6785.067     7752.337    14537.404    13779.512 
   71700        358.5   0.49829636    0.6283931    6793.0211    7653.0846    14446.106    13779.512 
   71800          359   0.50135388   0.61072532    6781.8537    7700.0435    14481.897    13779.512 
   71900        359.5   0.50388702   0.71200264     6768.133    7738.9488    14507.082    13779.512 
   72000          360   0.49588893   0.71018095    6827.9593    7616.1101    14444.069    13779.512 
   72100        360.5   0.49679312   0.63599055    6797.9388    7629.9972    14427.936    13779.512 
   72200          361    0.5042873   0.64614272    6792.3567    7745.0965    14537.453    13779.512 
   72300        361.5   0.50151079   0.70281204    6845.4437    7702.4534    14547.897    13779.512 
   72400          362   0.50838246   0.73843957     6798.616    7807.9921    14606.608    13779.512 
   72500        362.5   0.50138747   0.62645977     6902.135    7700.5594    14602.694    13779.512 
   72600          363   0.49885264   0.68710961    6897.2573    7661.6283    14558.886    13779.512 
   72700        363.5   0.50031679   0.61372597    6927.2556    7684.1155    14611.371    13779.512 
   72800          364   0.49683606   0.58345108    6977.8401    7630.6567    14608.497    13779.512 
   72900        364.5   0.50098199   0.74569121    6899.0099    7694.3319    14593.342    13779.512 
   73000          365   0.50132241   0.76205706    6881.3205    7699.5603    14580.881    13779.512 
   73100        365.5   0.50414683   0.64540533    6852.9136    7742.9391    14595.853    13779.512 
   73200          366   0.50480907   0.72743359    6787.9879    7753.1101    14541.098    13779.512 
   73300        366.5   0.50529372   0.75559274    6731.9482    7760.5536    14492.502    13779.512 
   73400          367   0.49989943    0.7252697    6898.3676    7677.7054    14576.073    13779.512 
   73500        367.5   0.50513566    0.7229511    6846.6019     7758.126    14604.728    13779.512 
   73600          368   0.50330044   0.71824435    6924.2613    7729.9398    14654.201    13779.512 
   73700        368.5   0.50337554   0.69477608    6851.0961    7731.0933    14582.189    13779.512 
   73800          369   0.50103587   0.70864024    6837.4692    7695.1594    14532.629    13779.512 
   73900        369.5     0.497376   0.68075936    6850.4224    7638.9493    14489.372    13779.512 
   74000          370    0.5026445   0.65758573    6828.9759    7719.8655    14548.841    13779.512 
   74100        370.5   0.50097364   0.69676375    6820.5679    7694.2036    14514.772    13779.512 
   74200          371   0.50381822   0.71103678    6830.7871    7737.8921    14568.679    13779.512 
   74300        371.5   0.50049766   0.67114511    6827.2962    7686.8934     14514.19    13779.512 
   74400          372   0.50371164   0.70789793    6832.6065    7736.2552    14568.862    13779.512 
   74500        372.5   0.50362745   0.70588632    6943.0206    7734.9622    14677.983    13779.512 
   74600          373   0.49809234   0.60835171     6876.219    7649.9513     14526.17    13779.512 
[...]
  873700       4368.5   0.50163318   0.67950786    6849.1485    7704.3332    14553.482    13779.512 
  873800         4369   0.50320003   0.67013777    6837.0689    7728.3976    14565.467    13779.512 
  873900       4369.5     0.503537   0.74662656    6901.3081     7733.573    14634.881    13779.512 
  874000         4370   0.50322125   0.77584243    6933.7368    7728.7236     14662.46    13779.512 
  874100       4370.5      0.50549   0.57478628    6916.7622    7763.5681     14680.33    13779.512 
  874200         4371   0.49845009   0.63158483    6905.1991    7655.4457    14560.645    13779.512 
  874300       4371.5   0.49780687   0.66446364    6870.3318    7645.5668    14515.899    13779.512 
  874400         4372   0.50093841   0.68144625    6797.7649    7693.6626    14491.428    13779.512 
  874500       4372.5   0.49763302   0.66328123    6802.0017    7642.8967    14444.898    13779.512 
  874600         4373   0.50086995   0.59607366    6867.4772    7692.6111    14560.088    13779.512 
  874700       4373.5   0.50606647    0.6897412    6809.3138    7772.4218    14581.736    13779.512 
  874800         4374   0.50205281    0.6064454    6755.5641     7710.778    14466.342    13779.512 
  874900       4374.5   0.49997475   0.64483898    6720.9639    7678.8622    14399.826    13779.512 
  875000         4375   0.49856547   0.66623901    6760.6746    7657.2178    14417.892    13779.512 
  875100       4375.5   0.49289272    0.6880414    6832.8214    7570.0929    14402.914    13779.512 
  875200         4376     0.498198   0.72077899    6780.5628     7651.574    14432.137    13779.512 
  875300       4376.5   0.49503449   0.61108716     6745.214    7602.9873    14348.201    13779.512 
  875400         4377   0.49914879   0.70981771    6774.5198    7666.1767    14440.696    13779.512 
  875500       4377.5   0.49999207   0.71139497    6875.0314    7679.1282     14554.16    13779.512 
  875600         4378    0.5025941   0.68489964    6968.6755    7719.0915    14687.767    13779.512 
  875700       4378.5   0.50263492   0.67114206    6999.1283    7719.7184    14718.847    13779.512 
  875800         4379    0.4979182   0.74987661    6925.7242    7647.2767    14573.001    13779.512 
  875900       4379.5    0.4996724   0.73023715    6908.7233    7674.2186    14582.942    13779.512 
  876000         4380   0.49979583   0.57901435    6884.9345    7676.1143    14561.049    13779.512 
  876100       4380.5   0.49668495   0.69322651    6914.8945    7628.3358     14543.23    13779.512 
  876200         4381    0.4978177    0.6933265    6841.3783    7645.7332    14487.111    13779.512 
  876300       4381.5   0.50198792   0.66388706    6851.0235    7709.7814    14560.805    13779.512 
  876400         4382   0.49801788   0.70612469    6871.1583    7648.8075    14519.966    13779.512 
  876500       4382.5   0.49527968   0.62002653    6865.7985     7606.753    14472.551    13779.512 
  876600         4383   0.50268149   0.74970115    6852.8901    7720.4337    14573.324    13779.512 
  876700       4383.5    0.4990175   0.77312356    6867.5787    7664.1603    14531.739    13779.512 
  876800         4384   0.50059341   0.65525555     6835.716    7688.3639     14524.08    13779.512 
  876900       4384.5   0.49831673   0.66265356    6882.6084    7653.3976    14536.006    13779.512 
  877000         4385   0.49478857   0.61284407    6941.4221    7599.2103    14540.632    13779.512 
  877100       4385.5   0.49717099   0.63932565    6932.3296    7635.8006     14568.13    13779.512 
  877200         4386   0.49677114    0.6535285    6845.8046    7629.6596    14475.464    13779.512 
  877300       4386.5   0.49789644   0.59727243    6851.3725    7646.9425    14498.315    13779.512 
  877400         4387    0.4980362   0.72260571    6806.3186    7649.0889    14455.408    13779.512 
  877500       4387.5   0.49981176   0.71366164      6766.98    7676.3589    14443.339    13779.512 
  877600         4388   0.49548624    0.7110097    6837.7285    7609.9254    14447.654    13779.512 
  877700       4388.5   0.49940647    0.7169085    6847.4249    7670.1342    14517.559    13779.512 
  877800         4389   0.49829997   0.71888378    6828.9129    7653.1401    14482.053    13779.512 
  877900       4389.5   0.50652171   0.73742113    6868.8835    7779.4136    14648.297    13779.512 
  878000         4390   0.50283151   0.68651976    6881.0932    7722.7377    14603.831    13779.512 
  878100       4390.5    0.5056173   0.71458186    6877.2332    7765.5232    14642.756    13779.512 
  878200         4391   0.49962712   0.64308311    6894.6907    7673.5231    14568.214    13779.512 
  878300       4391.5    0.5054898   0.64375975    6930.8656    7763.5651    14694.431    13779.512 
  878400         4392   0.50328611   0.66941901    6946.7804    7729.7197      14676.5    13779.512 
  878500       4392.5   0.50301151   0.66023406     6948.294    7725.5023    14673.796    13779.512 
  878600         4393   0.50313072   0.67938332    6848.6315    7727.3331    14575.965    13779.512 
  878700       4393.5   0.50047753    0.7047194    6898.7239    7686.5842    14585.308    13779.512 
  878800         4394   0.50253955   0.70602303    6777.5587    7718.2536    14495.812    13779.512 
  878900       4394.5   0.50148442   0.68039131    6868.2597    7702.0485    14570.308    13779.512 
  879000         4395   0.50107459   0.69267724    6863.6617    7695.7541    14559.416    13779.512 
  879100       4395.5   0.50207503   0.67825203    6875.1454    7711.1193    14586.265    13779.512 
  879200         4396   0.50285393   0.69971218     6927.968     7723.082     14651.05    13779.512 
  879300       4396.5   0.50124791   0.68712401    6884.5315     7698.416    14582.948    13779.512 
  879400         4397   0.50598448   0.60993339    6776.7021    7771.1627    14547.865    13779.512 
  879500       4397.5   0.49190755   0.72008647    6861.1353    7554.9621    14416.097    13779.512 
  879600         4398   0.49900862   0.63793996    6925.7031    7664.0239    14589.727    13779.512 
  879700       4398.5   0.50277193   0.74996392    6832.7679    7721.8226    14554.591    13779.512 
  879800         4399   0.50026011   0.62350497    6869.1505     7683.245    14552.395    13779.512 
  879900       4399.5   0.49542819   0.67050123    6837.9159    7609.0338     14446.95    13779.512 
  880000         4400   0.50228521   0.60852186    6916.1853    7714.3475    14630.533    13779.512 
  880100       4400.5   0.50450481   0.68556015    6805.6167    7748.4371    14554.054    13779.512 
  880200         4401   0.50906097   0.62341716    6868.6995    7818.4129    14687.112    13779.512 
  880300       4401.5   0.49748328    0.6867171    6948.3854     7640.597    14588.982    13779.512 
  880400         4402    0.4994864   0.64271889     6865.081     7671.362    14536.443    13779.512 
  880500       4402.5   0.49904073   0.67637952    6844.5278     7664.517    14509.045    13779.512 
  880600         4403   0.49874985   0.69633111    6885.2662    7660.0496    14545.316    13779.512 
  880700       4403.5   0.49802374   0.70184691    6873.9377    7648.8977    14522.835    13779.512 
  880800         4404   0.50059533   0.63676174    6876.5913    7688.3934    14564.985    13779.512 
  880900       4404.5   0.50154349   0.60451516    6825.7342    7702.9557     14528.69    13779.512 
  881000         4405   0.50090976   0.66190225    6805.4822    7693.2225    14498.705    13779.512 
  881100       4405.5   0.50048194   0.64781736     6828.247    7686.6519    14514.899    13779.512 
  881200         4406   0.49830539   0.79490643    6808.3043    7653.2233    14461.528    13779.512 
  881300       4406.5   0.50075974   0.81825579    6878.0831    7690.9185    14569.002    13779.512 
  881400         4407   0.50324667   0.69279826    6915.0059     7729.114     14644.12    13779.512 
  881500       4407.5   0.50570308   0.74016365    6810.3346    7766.8408    14577.175    13779.512 
  881600         4408   0.50001476   0.72990637    6865.6563    7679.4767    14545.133    13779.512 
  881700       4408.5   0.50378381    0.6085678    6856.4645    7737.3637    14593.828    13779.512 
  881800         4409   0.50471442    0.7037045    6919.0215    7751.6564    14670.678    13779.512 
  881900       4409.5   0.50412914   0.72403578    6803.1339    7742.6674    14545.801    13779.512 
  882000         4410   0.49821352   0.74441977    6919.0959    7651.8123    14570.908    13779.512 
  882100       4410.5   0.50497571   0.67625847    6883.6316    7755.6695    14639.301    13779.512 
  882200         4411   0.50492426   0.69211182    6912.2803    7754.8793     14667.16    13779.512 
  882300       4411.5   0.49806241   0.71102091    6947.6292    7649.4915    14597.121    13779.512 
  882400         4412   0.50259001   0.73491916    6917.1642    7719.0286    14636.193    13779.512 
  882500       4412.5   0.50178376   0.76687612    6900.2946    7706.6458     14606.94    13779.512 
  882600         4413    0.5018679   0.73831299    6905.5785    7707.9381    14613.517    13779.512 
  882700       4413.5   0.49934171   0.60602587    6894.9342    7669.1396    14564.074    13779.512 
  882800         4414    0.5010333   0.77151038     6865.888    7695.1199    14561.008    13779.512 
  882900       4414.5   0.49955147   0.75676741    6826.3333    7672.3612    14498.695    13779.512 
  883000         4415   0.49995729   0.70975602    6829.8187    7678.5941    14508.413    13779.512 
  883100       4415.5   0.50140794   0.68142293    6857.5369    7700.8738    14558.411    13779.512 
  883200         4416   0.50264412   0.64181449    6904.7738    7719.8597    14624.633    13779.512 
  883300       4416.5   0.50235895    0.6718985    6863.2436      7715.48    14578.724    13779.512 
  883400         4417   0.50460922    0.7594521    6797.2323    7750.0407    14547.273    13779.512 
  883500       4417.5    0.5038325   0.70031534    6835.6459    7738.1114    14573.757    13779.512 
  883600         4418   0.49841971   0.71420509    6865.0078    7654.9791    14519.987    13779.512 
  883700       4418.5   0.50260872   0.64226691    6846.3921     7719.316    14565.708    13779.512 
  883800         4419   0.50753904   0.71156139    6903.4894    7795.0383    14698.528    13779.512 
  883900       4419.5    0.5036665   0.68856979    6936.4098    7735.5619    14671.972    13779.512 
  884000         4420   0.51026966   0.65274336    6853.2566    7836.9766    14690.233    13779.512 
  884100       4420.5   0.50360251   0.71269011    6843.0113    7734.5792     14577.59    13779.512 
  884200         4421   0.49836796   0.64095909    6841.1031    7654.1843    14495.287    13779.512 
  884300       4421.5   0.50311534    0.7294381    6963.7975     7727.097    14690.894    13779.512 
  884400         4422   0.50150954   0.68901683    6841.4501    7702.4343    14543.884    13779.512 
  884500       4422.5   0.49789174   0.64018053    6853.1594    7646.8702     14500.03    13779.512 
  884600         4423   0.49893736   0.58101255    6823.3551    7662.9295    14486.285    13779.512 
  884700       4423.5   0.50045224   0.61194221    6807.9399    7686.1957    14494.136    13779.512 
  884800         4424   0.49974625    0.6782486    6794.6731    7675.3528    14470.026    13779.512 
  884900       4424.5   0.50019008   0.67411623    6823.1468    7682.1693    14505.316    13779.512 
  885000         4425   0.49493826   0.62555764    6911.8587    7601.5093    14513.368    13779.512 
  885100       4425.5   0.49926986   0.71729029    6889.5798    7668.0361    14557.616    13779.512 
  885200         4426   0.49719649    0.7097002    6914.2499    7636.1923    14550.442    13779.512 
  885300       4426.5   0.49850384   0.66126592    6894.0081    7656.2712    14550.279    13779.512 
  885400         4427   0.49624904   0.60396714    6884.4437    7621.6408    14506.084    13779.512 
  885500       4427.5   0.49500022   0.63430919    6952.2354     7602.461    14554.696    13779.512 
  885600         4428   0.49954465   0.59553643    6967.8845    7672.2565    14640.141    13779.512 
  885700       4428.5   0.50601441   0.70641056    6957.3528    7771.6224    14728.975    13779.512 
  885800         4429   0.50838567   0.65284727    6922.5049    7808.0413    14730.546    13779.512 
  885900       4429.5   0.50194552   0.65916383    6887.8106    7709.1303    14596.941    13779.512 
  886000         4430   0.49559966   0.64455557    6948.0076    7611.6673    14559.675    13779.512 
  886100       4430.5    0.4928975   0.71057764     6902.812    7570.1662    14472.978    13779.512 
  886200         4431   0.49653746   0.65090199    6885.8952    7626.0705    14511.966    13779.512 
  886300       4431.5   0.49680826   0.67163067    6747.4646    7630.2296    14377.694    13779.512 
  886400         4432   0.49746523   0.58580851    6774.1081    7640.3198    14414.428    13779.512 
  886500       4432.5   0.49362758   0.74614595    6794.0175    7581.3793    14375.397    13779.512 
  886600         4433   0.49567608    0.6942871    6783.1043    7612.8411    14395.945    13779.512 
  886700       4433.5   0.50336805   0.69697365    6790.8362    7730.9781    14521.814    13779.512 
  886800         4434   0.49724171   0.60217727    6831.7004    7636.8868    14468.587    13779.512 
  886900       4434.5    0.5019465   0.63325667    6847.0671    7709.1454    14556.213    13779.512 
  887000         4435   0.50159156   0.66748103    6844.3005     7703.694    14547.995    13779.512 
  887100       4435.5   0.49854486   0.89412469    6899.7239    7656.9012    14556.625    13779.512 
  887200         4436   0.49635241   0.70602106    6918.3438    7623.2284    14541.572    13779.512 
  887300       4436.5   0.48780206   0.60878766    6810.6665    7491.9079    14302.574    13779.512 
  887400         4437    0.4992621   0.67002198    6763.0758     7667.917    14430.993    13779.512 
  887500       4437.5   0.49155166   0.68402489    6860.7743    7549.4961     14410.27    13779.512 
  887600         4438   0.48873071    0.7399975    6850.2453    7506.1705    14356.416    13779.512 
  887700       4438.5   0.49470309   0.70843725    6860.3829    7597.8975     14458.28    13779.512 
  887800         4439   0.49887254   0.59485061    6743.9248    7661.9338    14405.859    13779.512 
  887900       4439.5   0.49139844   0.56384717    6774.2937     7547.143    14321.437    13779.512 
  888000         4440   0.49411144   0.69570458    6825.9038    7588.8106    14414.714    13779.512 
  888100       4440.5   0.49783503   0.76322854    6832.9849    7645.9993    14478.984    13779.512 
  888200         4441   0.49939603   0.62569787    6877.7742     7669.974    14547.748    13779.512 
  888300       4441.5   0.49191618   0.60730563    6855.3227    7555.0946    14410.417    13779.512 
  888400         4442   0.50338512   0.74423575     6825.778    7731.2404    14557.018    13779.512 
  888500       4442.5   0.50487109    0.6699199    6861.6408    7754.0626    14615.703    13779.512 
  888600         4443   0.50035398   0.66462268    6801.1782    7684.6866    14485.865    13779.512 
  888700       4443.5   0.49810066   0.63203815    6960.8907     7650.079     14610.97    13779.512 
  888800         4444   0.49659122   0.72072861    6916.2494    7626.8962    14543.146    13779.512 
  888900       4444.5   0.49540561    0.6798143    6846.0316    7608.6871    14454.719    13779.512 
  889000         4445   0.49443266   0.67768547    6885.9187    7593.7441    14479.663    13779.512 
  889100       4445.5   0.49665835   0.64001076    6895.1457    7627.9273    14523.073    13779.512 
  889200         4446    0.4984315   0.70597321    6825.3675    7655.1601    14480.528    13779.512 
  889300       4446.5   0.50293783   0.58453552    6823.2469    7724.3707    14547.618    13779.512 
  889400         4447   0.49718476   0.69696413    6884.7512    7636.0121    14520.763    13779.512 
  889500       4447.5   0.49561312   0.67893117    6813.0224    7611.8741    14424.896    13779.512 
  889600         4448   0.49181633   0.74697298    6859.5492    7553.5611     14413.11    13779.512 
  889700       4448.5   0.49639737   0.67992897    6866.7599     7623.919    14490.679    13779.512 
  889800         4449   0.49392057   0.77444159    6911.7784     7585.879    14497.657    13779.512 
  889900       4449.5   0.49905023   0.67110908    6863.9856    7664.6629    14528.649    13779.512 
  890000         4450   0.49263879   0.69324811    6812.1068    7566.1929      14378.3    13779.512 
  890100       4450.5   0.49520437    0.6513767    6764.8872    7605.5962    14370.483    13779.512 
  890200         4451   0.49950368   0.63895195    6792.2296    7671.6273    14463.857    13779.512 
  890300       4451.5    0.5021814   0.74116448    6765.6457     7712.753    14478.399    13779.512 
  890400         4452   0.50113366   0.68914249    6878.4534    7696.6613    14575.115    13779.512 
  890500       4452.5   0.50489682   0.65985595    6865.0928    7754.4578    14619.551    13779.512 
  890600         4453   0.50373076   0.60418831    6860.6309    7736.5488     14597.18    13779.512 
  890700       4453.5   0.50341515   0.73237523     7017.121    7731.7016    14748.823    13779.512 
  890800         4454   0.49777019   0.76968926     6897.434    7645.0035    14542.438    13779.512 
  890900       4454.5   0.49839243    0.6498685    6952.2856    7654.5601    14606.846    13779.512 
  891000         4455   0.50133661   0.56317095    6946.6447    7699.7783    14646.423    13779.512 
  891100       4455.5    0.5021402   0.59564978    6867.0376    7712.1203    14579.158    13779.512 
  891200         4456   0.49706881   0.65987961    6918.1609    7634.2313    14552.392    13779.512 
  891300       4456.5   0.50066832   0.73589974    6834.2319    7689.5144    14523.746    13779.512 
  891400         4457   0.50193778   0.62656903    6770.4922    7709.0114    14479.504    13779.512 
  891500       4457.5   0.49128978    0.6264595     6935.014    7545.4741    14480.488    13779.512 
  891600         4458   0.49381173   0.58110687    6856.2329    7584.2075     14440.44    13779.512 
  891700       4458.5   0.49295138     0.558959    6836.7717    7570.9938    14407.765    13779.512 
  891800         4459   0.49473607   0.68620932    6817.2145    7598.4039    14415.618    13779.512 
  891900       4459.5   0.49376922   0.70974843    6899.3761    7583.5545    14482.931    13779.512 
  892000         4460   0.49978854   0.66469503    6845.2794    7676.0024    14521.282    13779.512 
  892100       4460.5   0.50203674   0.75081977     6848.245    7710.5313    14558.776    13779.512 
  892200         4461   0.50337662   0.60873338    6796.8011    7731.1099    14527.911    13779.512 
  892300       4461.5   0.50182274   0.63134471    6839.1076    7707.2445    14546.352    13779.512 
  892400         4462   0.50130162   0.70811778    6919.5836     7699.241    14618.825    13779.512 
  892500       4462.5   0.50238879   0.71201294    6856.9697    7715.9382    14572.908    13779.512 
  892600         4463   0.50144761   0.59526929    6884.7434    7701.4832    14586.227    13779.512 
  892700       4463.5   0.50417064   0.67279817    6935.4006    7743.3048    14678.705    13779.512 
  892800         4464    0.5001108    0.6845454    6931.4675    7680.9517    14612.419    13779.512 
  892900       4464.5   0.49602927   0.68888515    6805.9152    7618.2655    14424.181    13779.512 
  893000         4465   0.49907421     0.642261    6803.7083    7665.0313     14468.74    13779.512 
  893100       4465.5   0.50321821    0.6041516    6781.5015    7728.6768    14510.178    13779.512 
  893200         4466   0.50171036   0.61048951    6813.7901    7705.5186    14519.309    13779.512 
  893300       4466.5   0.50133954   0.70737485    6918.7557    7699.8233    14618.579    13779.512 
  893400         4467   0.50249271   0.68018752    6850.6621    7717.5