LAMMPS (3 Mar 2020)
OMP_NUM_THREADS environment is not set. Defaulting to 1 thread. (../comm.cpp:94)
  using 1 OpenMP thread(s) per MPI task
#run with lmp_serial -pk omp 8 -sf omp -in in.run_loop

#SETUP
# Runs on the first loop only
shell del *.dump     # delete all dump files before first run CAREFUL WITH THIS
shell del restart.time*     # delete all current restart files before first run
shell lmp_serial -in in.run_setup     # first run of file, generate first restart file

#VARIABLES
variable N         equal  1024  #MUST BE SAME AS SETUP FILE FOR PHASEPLOT
variable T         equal  0.5
variable t_step    equal  0.005 #originally 0.005
variable mix_steps index  30000 20000 10000 10000 10000 10000 10000 100000 100000
variable mix_tau   equal  ${t_step}*${mix_steps}
variable mix_tau   equal  0.005*${mix_steps}
variable mix_tau   equal  0.005*30000
variable run_steps equal  30000 # steps to run simulation in order to reach steady state
variable run_tau   equal  ${t_step}*${run_steps} # this is the time in LJ units
variable run_tau   equal  0.005*${run_steps} 
variable run_tau   equal  0.005*30000 
#1000 particles averages 35,000 steps per minute

#LOOP START
label loop  #start loop from here
read_restart restart.time*
  restoring atom style molecular from restart
  orthogonal box = (-0 -0 -0) to (18.24 40.32 18.24)
  1 by 1 by 1 MPI processor grid
  restoring pair style lj/cut from restart
  restoring bond style harmonic from restart
  restoring angle style harmonic from restart
  10240 atoms
  9216 bonds
  8192 angles
  2 = max # of 1-2 neighbors
  2 = max # of 1-3 neighbors
  4 = max # of 1-4 neighbors
  6 = max # of special neighbors
  special bonds CPU = 0.029922 secs
  read_restart CPU = 0.0633659 secs
# this reads in latest restart file, * is wildcard for timestep


# THERMAL
timestep ${t_step}
timestep 0.005
thermo   100
thermo_style custom step time temp press pe ke etotal vol
thermo_modify norm no


# DUMP OUTPUT
dump  1  all custom 5000 output_T_${T}_time_*.dump id mol type x y z vx vy vz
dump  1  all custom 5000 output_T_0.5_time_*.dump id mol type x y z vx vy vz
# dumps all positions etc every N  steps
dump_modify 1 sort id

# FIX
fix 2 all nph iso 0.0001 0.0001 1000   #reduced target pressure here
fix 3 all langevin ${T} ${T} 1 123456 #as above
fix 3 all langevin 0.5 ${T} 1 123456 
fix 3 all langevin 0.5 0.5 1 123456 
run ${mix_steps}
run 30000
Neighbor list info ...
  update every 1 steps, delay 10 steps, check yes
  max neighbors/atom: 2000, page size: 100000
  master list distance cutoff = 1.42
  ghost atom cutoff = 1.9
  binsize = 0.71, bins = 26 57 26
  1 neighbor lists, perpetual/occasional/extra = 1 0 0
  (1) pair lj/cut, perpetual
      attributes: half, newton on
      pair build: half/bin/newton
      stencil: half/bin/3d/newton
      bin: standard
Per MPI rank memory allocation (min/avg/max) = 16.42 | 16.42 | 16.42 Mbytes
Step Time Temp Press PotEng KinEng TotEng Volume 
       0            0            0 -2.7685018e-15 1.4565528e-23            0 1.4565528e-23    13414.367 
     100          0.5   0.20986137   0.51228373    2794.6984    3223.1558    6017.8542    13414.368 
     200            1   0.33250547   0.81897143    4389.3149    5106.7853    9496.1002    13414.376 
     300          1.5   0.40001409   0.83233581    5484.9583    6143.6163    11628.575    13414.393 
     400            2   0.44041996   0.80408567     6085.428    6764.1899    12849.618    13414.421 
     500          2.5   0.46904669   0.84292843    6428.5472    7203.8536    13632.401    13414.461 
     600            3   0.48050537   0.84704822     6698.377    7379.8417    14078.219    13414.511 
     700          3.5   0.49357483   0.91712205    6816.7047     7580.569    14397.274    13414.573 
     800            4   0.50101076    0.7936272    6915.6531    7694.7737    14610.427    13414.646 
     900          4.5   0.49942937   0.74602013    6833.4021     7670.486    14503.888     13414.73 
    1000            5   0.49513429   0.81318143    6932.6772    7604.5201    14537.197    13414.825 
    1100          5.5   0.50471543   0.83555795    6870.1727    7751.6719    14621.845    13414.931 
    1200            6   0.50089717   0.81061499    6955.4663    7693.0291    14648.495    13415.048 
    1300          6.5    0.4997579   0.87600688    6848.6136    7675.5317    14524.145    13415.176 
    1400            7   0.49722037   0.79819728    6863.2956     7636.559    14499.855    13415.314 
    1500          7.5    0.5023959    0.8073136    6795.5012    7716.0475    14511.549    13415.464 
    1600            8   0.50430041   0.88941702    6858.8999    7745.2979    14604.198    13415.624 
    1700          8.5   0.50427169   0.78387943    6869.2185    7744.8568    14614.075    13415.795 
    1800            9   0.49722263   0.74419035    6905.7842    7636.5938    14542.378    13415.976 
    1900          9.5   0.50394245   0.80619364    6819.9126    7739.8001    14559.713    13416.168 
    2000           10   0.50366003   0.89149345    6849.0089    7735.4626    14584.472    13416.371 
    2100         10.5   0.50119235   0.87744078    6893.6075    7697.5628     14591.17    13416.585 
    2200           11   0.49337486   0.76366473    6890.5767    7577.4978    14468.074     13416.81 
    2300         11.5   0.49679596   0.80388506    6829.2232    7630.0408    14459.264    13417.045 
    2400           12    0.4992579   0.79783094    6852.3568    7667.8524    14520.209    13417.292 
    2500         12.5   0.50164038   0.86428351    6978.1706    7704.4438    14682.614     13417.55 
    2600           13   0.50478818    0.8723923    6994.8595    7752.7893    14747.649    13417.819 
    2700         13.5   0.50588603   0.88342342    7018.8905    7769.6506    14788.541    13418.099 
    2800           14   0.50769175   0.83452539    6840.9643    7797.3838    14638.348     13418.39 
    2900         14.5   0.50211149   0.80604868     6918.054    7711.6792    14629.733    13418.693 
    3000           15   0.50469857   0.69643706    6839.0591     7751.413    14590.472    13419.007 
    3100         15.5    0.5017429   0.80451987    6779.4102    7706.0183    14485.428    13419.331 
    3200           16   0.49821584   0.87428223    6801.5322    7651.8479     14453.38    13419.666 
    3300         16.5    0.4984614   0.84574046    6778.7971    7655.6193    14434.416    13420.012 
    3400           17   0.50746792   0.74713763    6756.1604     7793.946    14550.106    13420.368 
    3500         17.5    0.5001569   0.69699353    6799.3818    7681.6597    14481.042    13420.735 
    3600           18     0.495598   0.74410805    6836.6462    7611.6419    14448.288    13421.112 
    3700         18.5   0.49498822   0.84377106    6872.3132    7602.2766     14474.59    13421.499 
    3800           19   0.49676921   0.80093224    6862.4198    7629.6299     14492.05    13421.897 
    3900         19.5   0.49983337   0.73360474    6827.3693    7676.6909     14504.06    13422.306 
    4000           20   0.49931064   0.86705563    6769.6889    7668.6625    14438.351    13422.724 
    4100         20.5   0.49761649   0.77603867    6789.6342    7642.6428    14432.277    13423.154 
    4200           21   0.49346875   0.77712646    6754.4679    7578.9398    14333.408    13423.594 
    4300         21.5   0.49691241   0.87075324     6811.461    7631.8293     14443.29    13424.045 
    4400           22   0.49610939   0.79792886    6878.0704    7619.4961    14497.566    13424.507 
    4500         22.5   0.50471025   0.70673731    6831.7548    7751.5923    14583.347    13424.979 
    4600           23   0.50381184   0.82083564    6903.7875    7737.7941    14641.582    13425.462 
    4700         23.5   0.49777763   0.86867816    6881.3388    7645.1178    14526.457    13425.955 
    4800           24   0.50053917    0.8654803    6814.1462    7687.5309    14501.677    13426.459 
    4900         24.5   0.49484482   0.80697867    6832.6746    7600.0741    14432.749    13426.974 
    5000           25   0.49573347   0.81993818    6870.2872    7613.7225     14484.01    13427.501 
    5100         25.5   0.49899024   0.80594933    6857.8542    7663.7416    14521.596    13428.038 
    5200           26   0.50109515   0.90303843    6792.8193    7696.0698    14488.889    13428.586 
    5300         26.5   0.50663311   0.81046844    6783.4964    7781.1246    14564.621    13429.144 
    5400           27    0.4977542   0.73734487    6886.5656    7644.7578    14531.323    13429.713 
    5500         27.5   0.50476273   0.86297881    6855.8097    7752.3984    14608.208    13430.292 
    5600           28   0.50677315     0.797128    6888.4843    7783.2754     14671.76    13430.882 
    5700         28.5   0.49913117   0.78307464    6908.9645     7665.906    14574.871    13431.482 
    5800           29   0.49801748   0.79494038    6893.2782    7648.8015     14542.08    13432.093 
    5900         29.5   0.49985145   0.80821603    6850.0374    7676.9685    14527.006    13432.714 
    6000           30   0.50146444   0.84548218    6857.1328    7701.7416    14558.874    13433.346 
    6100         30.5   0.49831357   0.80077124    6944.7506    7653.3489    14598.099    13433.988 
    6200           31   0.50022635   0.80268638    6964.6384    7682.7264    14647.365    13434.641 
    6300         31.5   0.49784527   0.86884198    6920.2969    7646.1565    14566.453    13435.305 
    6400           32   0.49484624    0.8746488    6921.1294    7600.0959    14521.225     13435.98 
    6500         32.5   0.49527708   0.87127883    6855.3136     7606.713    14462.027    13436.666 
    6600           33   0.49696271   0.86987317    6800.7687    7632.6018     14433.37    13437.363 
    6700         33.5   0.49905731    0.7901776    6892.1624    7664.7717    14556.934    13438.071 
    6800           34   0.50212561   0.75131834    6809.8771    7711.8961    14521.773    13438.788 
    6900         34.5    0.4992866   0.85803224    6885.4345    7668.2932    14553.728    13439.516 
    7000           35   0.50335743    0.8584497    6790.5907     7730.815    14521.406    13440.255 
    7100         35.5   0.49611085   0.79690739     6767.894    7619.5184    14387.412    13441.004 
    7200           36   0.49479951   0.83484804    6844.0482    7599.3782    14443.426    13441.763 
    7300         36.5   0.49082321    0.8093143     6846.547    7538.3082    14384.855    13442.533 
    7400           37    0.4965079   0.76354526    6888.9565    7625.6166    14514.573    13443.313 
    7500         37.5   0.50316819   0.75064213    6863.6264    7727.9086    14591.535    13444.104 
    7600           38   0.50255387   0.80590412    6844.7234    7718.4736    14563.197    13444.905 
    7700         38.5   0.49739761   0.77471815    6874.2559    7639.2812    14513.537    13445.717 
    7800           39   0.49947506   0.77234715    6876.2273    7671.1877    14547.415    13446.538 
    7900         39.5   0.50236828    0.7718627    6867.1121    7715.6233    14582.735     13447.37 
    8000           40   0.50260483     0.736253    6845.6638    7719.2562     14564.92    13448.213 
    8100         40.5   0.49539016   0.68731948    6821.7399    7608.4497     14430.19    13449.065 
    8200           41   0.49608602    0.8723904    6856.4289    7619.1372    14475.566    13449.927 
    8300         41.5   0.49932369   0.81453742    6765.2377    7668.8629    14434.101    13450.799 
    8400           42   0.49561463   0.84828287    6882.6706    7611.8972    14494.568    13451.682 
    8500         42.5   0.49920102   0.77679936    6884.6221    7666.9788    14551.601    13452.576 
    8600           43   0.49333698   0.77720551    6899.0444     7576.916     14475.96    13453.479 
    8700         43.5   0.50218996   0.62468788    6724.5117    7712.8844    14437.396    13454.393 
    8800           44   0.50303552   0.68583126    6741.2175     7725.871    14467.088    13455.317 
    8900         44.5    0.5016852   0.80699155    6787.2948    7705.1322    14492.427     13456.25 
    9000           45   0.49661469    0.7992674    6895.0987    7627.2568    14522.355    13457.193 
    9100         45.5   0.50044619   0.75463718    6838.4847    7686.1029    14524.588    13458.147 
    9200           46   0.51011022   0.74470912    6817.7996    7834.5279    14652.327     13459.11 
    9300         46.5   0.50457931    0.8526674    6900.0868    7749.5813    14649.668    13460.083 
    9400           47   0.50256496   0.82516474    6872.2254    7718.6439    14590.869    13461.066 
    9500         47.5   0.50514018   0.78609432     6866.406    7758.1954    14624.601    13462.059 
    9600           48   0.49432997   0.79614187    6912.0101    7592.1668    14504.177    13463.062 
    9700         48.5   0.49464342    0.7782717    6861.2946    7596.9809    14458.276    13464.074 
    9800           49   0.49952926   0.74190711    6795.5862    7672.0202    14467.606    13465.097 
    9900         49.5    0.4985488   0.81559877    6798.7466    7656.9618    14455.708    13466.129 
   10000           50    0.4932721   0.71042607    6825.2346    7575.9195    14401.154    13467.172 
   10100         50.5   0.49315689   0.76837276    6838.6857    7574.1501    14412.836    13468.224 
   10200           51   0.49635735   0.77786123    6887.7373    7623.3043    14511.042    13469.285 
   10300         51.5   0.49793499   0.74121656     6827.162    7647.5345    14474.697    13470.356 
   10400           52   0.50119505   0.79223513    6816.9525    7697.6042    14514.557    13471.436 
   10500         52.5   0.49787424   0.68464493     6856.683    7646.6015    14503.284    13472.526 
   10600           53    0.4966335   0.69562264    6953.1221    7627.5456    14580.668    13473.625 
   10700         53.5    0.5014903   0.73741314    6917.8822    7702.1387    14620.021    13474.734 
   10800           54   0.49957731   0.75959412    6861.2631    7672.7581    14534.021    13475.852 
   10900         54.5   0.49596215   0.79015476    6853.7053    7617.2347     14470.94     13476.98 
   11000           55   0.50242679   0.80798607    6823.0464    7716.5218    14539.568    13478.117 
   11100         55.5   0.50843651    0.7561477    6853.4319    7808.8222    14662.254    13479.263 
   11200           56   0.50834754   0.70677206    6903.5068    7807.4557    14710.963    13480.418 
   11300         56.5   0.49972327   0.75800806    7010.8472    7674.9999    14685.847    13481.582 
   11400           57    0.5017466   0.77030961    7001.5162    7706.0752    14707.591    13482.755 
   11500         57.5    0.4983572   0.73680809     6956.174    7654.0191    14610.193    13483.937 
   11600           58   0.49441865   0.71391551    6858.0768    7593.5288    14451.606    13485.127 
   11700         58.5   0.49726414    0.7450348    6952.6333    7637.2313    14589.865    13486.326 
   11800           59   0.50243455   0.78091148    6900.6101     7716.641    14617.251    13487.534 
   11900         59.5   0.49841347   0.69302911    6917.3052    7654.8832    14572.188    13488.752 
   12000           60    0.5035125   0.79174888    6788.4486    7733.1968    14521.645    13489.978 
   12100         60.5    0.5050399   0.86814582    6802.7495    7756.6553    14559.405    13491.213 
   12200           61   0.50065236    0.8493601    6945.0096    7689.2692    14634.279    13492.458 
   12300         61.5   0.49998795   0.72000468    6889.2572     7679.065    14568.322    13493.711 
   12400           62   0.49855942   0.77960074    6928.8401    7657.1249    14585.965    13494.973 
   12500         62.5   0.49910672   0.75864404    6925.8657    7665.5306    14591.396    13496.244 
   12600           63   0.49406013   0.77173936     6830.494    7588.0225    14418.517    13497.524 
   12700         63.5   0.49902895   0.73539185     6860.759    7664.3361    14525.095    13498.812 
   12800           64    0.5016255   0.71586532    6787.6572    7704.2152    14491.872    13500.109 
   12900         64.5   0.50044779   0.77006592    6872.8359    7686.1274    14558.963    13501.413 
   13000           65   0.50130268   0.64582048    6912.4121    7699.2572    14611.669    13502.727 
   13100         65.5   0.50218529   0.75427159      6953.08    7712.8128    14665.893    13504.048 
   13200           66   0.49679999   0.76015981    6947.7443    7630.1027    14577.847    13505.378 
   13300         66.5   0.49959302   0.85803057    6882.0312    7672.9993    14555.031    13506.716 
   13400           67   0.50454056   0.75857913    6825.9516    7748.9862    14574.938    13508.062 
   13500         67.5   0.50036552   0.70276858    6854.9766    7684.8638     14539.84    13509.417 
   13600           68   0.50197011    0.7918503      6834.65    7709.5079    14544.158    13510.779 
   13700         68.5   0.49562393   0.76076191    6878.1158    7612.0401    14490.156    13512.149 
   13800           69   0.50094369   0.80648808    6911.1501    7693.7437    14604.894    13513.528 
   13900         69.5   0.49813816   0.80215037    6921.9182    7650.6549    14572.573    13514.914 
   14000           70   0.49724829   0.76224232    6952.7878    7636.9879    14589.776    13516.309 
   14100         70.5   0.49690613   0.78935454    6955.8596    7631.7328    14587.592    13517.711 
   14200           71   0.50862485   0.73890083    6866.4461    7811.7147    14678.161     13519.12 
   14300         71.5   0.49817146   0.66511611    6880.5811    7651.1664    14531.747    13520.538 
   14400           72   0.49796719   0.75863245    7025.9905    7648.0291     14674.02    13521.963 
   14500         72.5   0.50049596   0.71684982    6803.6026    7686.8672     14490.47    13523.395 
   14600           73   0.49887883   0.71229387     6841.735    7662.0305    14503.766    13524.834 
   14700         73.5   0.50069205   0.66762814    6852.3411    7689.8788     14542.22     13526.28 
   14800           74   0.49971978    0.8004243    6934.8632    7674.9462    14609.809    13527.733 
   14900         74.5   0.50145219   0.86725826    6871.5583    7701.5535    14573.112    13529.193 
   15000           75   0.50257551   0.76446248    6835.8985    7718.8059    14554.704     13530.66 
   15100         75.5   0.49634702   0.82076692     6828.045    7623.1457    14451.191    13532.135 
   15200           76   0.49284591   0.74060125    6866.9858    7569.3739     14436.36    13533.617 
   15300         76.5   0.50426877   0.75328365    6830.7017    7744.8119    14575.514    13535.106 
   15400           77   0.50037855    0.7959407    6767.2161    7685.0639     14452.28    13536.602 
   15500         77.5   0.49585732   0.77731997     6772.175    7615.6246      14387.8    13538.105 
   15600           78   0.49054891   0.72469195    6822.4658    7534.0955    14356.561    13539.614 
   15700         78.5   0.49071594   0.76603976    6820.4653    7536.6608    14357.126     13541.13 
   15800           79   0.49424248   0.71502965    6721.1577    7590.8232    14311.981    13542.652 
   15900         79.5   0.49501657   0.70534856    6702.4428     7602.712    14305.155    13544.181 
   16000           80   0.49320861   0.73170762    6788.9103    7574.9444    14363.855    13545.716 
   16100         80.5   0.50220219    0.7248811    6856.9428    7713.0723    14570.015    13547.257 
   16200           81   0.49444808   0.64427052    6884.2556    7593.9808    14478.236    13548.804 
   16300         81.5   0.49938165   0.80323674    6904.3189     7669.753    14574.072    13550.358 
   16400           82   0.49901579   0.78255119    6840.5032    7664.1341    14504.637    13551.917 
   16500         82.5   0.50183905   0.66301278    6880.0842    7707.4951    14587.579    13553.482 
   16600           83   0.50000833   0.68869506    6835.0104     7679.378    14514.388    13555.053 
   16700         83.5   0.49439951   0.71128799    6934.5294    7593.2349    14527.764    13556.629 
   16800           84    0.4984568   0.65523985    6874.6328    7655.5487    14530.182     13558.21 
   16900         84.5   0.49619843   0.70853783    6875.5945    7620.8636    14496.458    13559.797 
   17000           85   0.49776513   0.77776659    6806.5295    7644.9258    14451.455    13561.389 
   17100         85.5   0.49608001   0.79421084    6861.9871    7619.0448    14481.032    13562.986 
   17200           86    0.4993134   0.67964583    6846.1165    7668.7049    14514.821    13564.588 
   17300         86.5   0.50426249   0.70598483    6837.8966    7744.7154    14582.612    13566.196 
   17400           87   0.50602199   0.73974742    6996.3136    7771.7387    14768.052    13567.809 
   17500         87.5   0.49538171   0.69954009    7043.4453    7608.3199    14651.765    13569.426 
   17600           88   0.50210109    0.7684065    6766.5378    7711.5195    14478.057    13571.048 
   17700         88.5   0.50342732   0.64218719    6853.8607    7731.8885    14585.749    13572.675 
   17800           89   0.49851975    0.6646354    6830.3305    7656.5155    14486.846    13574.305 
   17900         89.5   0.49576503   0.69692724    6801.1072    7614.2073    14415.314     13575.94 
   18000           90   0.49344045   0.77001449    6813.7438    7578.5051    14392.249     13577.58 
   18100         90.5   0.49588645   0.69607823    6920.1157     7616.072    14536.188    13579.224 
   18200           91   0.49943349   0.67331297    6925.7988    7670.5493    14596.348    13580.871 
   18300         91.5   0.50403881   0.69747179    6822.9227      7741.28    14564.203    13582.524 
   18400           92   0.50055074   0.74648035    6806.0897    7687.7085    14493.798     13584.18 
   18500         92.5   0.50539794   0.81760732     6880.519    7762.1542    14642.673     13585.84 
   18600           93    0.5032096    0.7144908    6941.0989    7728.5447    14669.644    13587.504 
   18700         93.5   0.50573156   0.65289905    6905.9787    7767.2782    14673.257    13589.172 
   18800           94   0.50569749   0.66662544    6886.2454     7766.755        14653    13590.844 
   18900         94.5    0.5084695   0.82387222    6867.8069    7809.3288    14677.136    13592.518 
   19000           95   0.50142232   0.83617149    6945.7012    7701.0947    14646.796    13594.197 
   19100         95.5   0.50141477   0.78164288    6944.8536    7700.9787    14645.832    13595.879 
   19200           96   0.50204259   0.64535273    6833.8617    7710.6212    14544.483    13597.564 
   19300         96.5   0.50111405    0.7825474    6805.1935    7696.3602    14501.554    13599.251 
   19400           97   0.50205639    0.7445009    6891.0823     7710.833    14601.915    13600.943 
   19500         97.5   0.50418902   0.80989685    6749.7105    7743.5871    14493.298    13602.637 
   19600           98   0.48865109   0.73358297    6769.8137    7504.9477    14274.761    13604.335 
   19700         98.5   0.48812333   0.71144993    6798.5102    7496.8422    14295.352    13606.034 
   19800           99   0.50018435   0.70191738    6907.9671    7682.0813    14590.048    13607.737 
   19900         99.5   0.50202465   0.79673123    6831.1426    7710.3456    14541.488    13609.442 
   20000          100   0.49319673   0.70414435    6897.9669     7574.762    14472.729    13611.149 
   20100        100.5   0.50543199   0.71060875    6775.6536    7762.6772    14538.331    13612.859 
   20200          101   0.49663087   0.78096547    6802.4778    7627.5052    14429.983    13614.571 
   20300        101.5   0.50047212   0.66992419    6929.8716     7686.501    14616.373    13616.285 
   20400          102   0.50111501   0.68459891    6913.3854    7696.3748     14609.76        13618 
   20500        102.5   0.49713283   0.76226609    6850.0124    7635.2146    14485.227    13619.717 
   20600          103   0.50119886   0.68040188    6807.2377    7697.6627      14504.9    13621.435 
   20700        103.5   0.49962961   0.67460096    6823.5086    7673.5614     14497.07    13623.155 
   20800          104   0.50260651   0.71326566    6842.6844    7719.2821    14561.967    13624.876 
   20900        104.5   0.50172913   0.67396581     6878.616    7705.8068    14584.423    13626.599 
   21000          105   0.49926849   0.78877599    6990.5075    7668.0152    14658.523    13628.323 
   21100        105.5   0.49777939   0.65820435    6945.1814    7645.1448    14590.326    13630.049 
   21200          106   0.50174913   0.68157656    6859.9754     7706.114    14566.089    13631.776 
   21300        106.5   0.50077131   0.70968271    6825.8496    7691.0962    14516.946    13633.504 
   21400          107   0.49942468   0.69443046    6950.6457    7670.4139     14621.06    13635.233 
   21500        107.5   0.50868681   0.71314621    6887.2439    7812.6663     14699.91    13636.963 
   21600          108   0.50564198   0.66948144     6852.598    7765.9024      14618.5    13638.694 
   21700        108.5   0.50195941   0.81785242    6898.2653    7709.3436    14607.609    13640.426 
   21800          109   0.49760495   0.74264692    6923.5825    7642.4657    14566.048    13642.158 
   21900        109.5   0.49732316   0.69834059    6939.0003    7638.1378    14577.138    13643.892 
   22000          110   0.49671941   0.65575895     6903.134    7628.8651    14531.999    13645.625 
   22100        110.5   0.50086587   0.71557809    6780.1178    7692.5485    14472.666    13647.358 
   22200          111   0.49845042   0.64964438     6935.539    7655.4508     14590.99    13649.092 
   22300        111.5   0.49978751   0.70695628    6806.7166    7675.9865    14482.703    13650.825 
   22400          112   0.49791404   0.77885386    6794.5988    7647.2128    14441.812    13652.558 
   22500        112.5   0.49784176   0.69919762    6822.8806    7646.1027    14468.983    13654.291 
   22600          113     0.501174   0.71295728    6851.7543    7697.2809    14549.035    13656.023 
   22700        113.5   0.49925174   0.66339896    6824.6013    7667.7579    14492.359    13657.756 
   22800          114   0.49992233   0.69055244    6849.3371     7678.057    14527.394    13659.488 
   22900        114.5   0.50090463   0.76599069    6811.4031    7693.1437    14504.547    13661.219 
   23000          115   0.50443471   0.73863061    6804.7587    7747.3605    14552.119    13662.951 
   23100        115.5   0.49867673   0.63383399    6864.3872    7658.9266    14523.314    13664.682 
   23200          116   0.50253224   0.64758869    6904.7563    7718.1414    14622.898    13666.413 
   23300        116.5   0.49852976   0.73943357    6803.6969    7656.6694    14460.366    13668.143 
   23400          117   0.49751615    0.6551887    6808.2709    7641.1018    14449.373    13669.873 
   23500        117.5   0.49853382   0.61644482    6860.5762    7656.7317    14517.308    13671.601 
   23600          118   0.50594763   0.74323609    6798.6986    7770.5966    14569.295    13673.329 
   23700        118.5   0.49915236   0.84293962    6901.6878    7666.2315    14567.919    13675.056 
   23800          119    0.4944937   0.69876534    6970.0216    7594.6815    14564.703    13676.782 
   23900        119.5   0.50061964   0.60247367    6818.1493    7688.7667    14506.916    13678.507 
   24000          120   0.50225333   0.69584045    6783.1246    7713.8577    14496.982    13680.231 
   24100        120.5   0.49422355   0.79012411    6804.0862    7590.5324    14394.619    13681.953 
   24200          121   0.49881274   0.72823243    6792.1557    7661.0154    14453.171    13683.673 
   24300        121.5    0.5032273   0.67312412    6823.8493    7728.8165    14552.666    13685.392 
   24400          122   0.50429151   0.72605459    6955.9065    7745.1611    14701.068     13687.11 
   24500        122.5   0.50012542   0.70475554     7032.714    7681.1762     14713.89    13688.826 
   24600          123   0.50801067   0.73085489    6921.4397    7802.2819    14723.722    13690.542 
   24700        123.5   0.50223492   0.71737951    6861.9949     7713.575     14575.57    13692.256 
   24800          124   0.50067575   0.68433538     6874.195    7689.6284    14563.823    13693.968 
   24900        124.5   0.50284709    0.6288113    6854.1264    7722.9771    14577.104    13695.678 
   25000          125   0.50111567   0.66643127    6802.6615    7696.3851    14499.047    13697.387 
   25100        125.5   0.50164376   0.71184039    6877.9467    7704.4957    14582.442    13699.093 
   25200          126   0.50767028   0.73245499    6810.7951     7797.054    14607.849    13700.797 
   25300        126.5   0.50229414   0.63359686    6834.6548    7714.4846    14549.139    13702.498 
   25400          127   0.49971178   0.63600301     6932.595    7674.8234    14607.418    13704.198 
   25500        127.5   0.50708061   0.64248451    6883.5124    7787.9975     14671.51    13705.896 
   25600          128   0.50543177   0.67083542     6869.328    7762.6738    14632.002    13707.591 
   25700        128.5   0.50096348   0.65939625    6787.3808    7694.0477    14481.429    13709.284 
   25800          129   0.49643724   0.67482329    6766.0688    7624.5313      14390.6    13710.974 
   25900        129.5   0.49884672    0.6144839    6873.3919    7661.5373    14534.929    13712.662 
   26000          130   0.50115644   0.65957462    6857.4952    7697.0112    14554.506    13714.348 
   26100        130.5   0.50011786   0.73785253    6888.1455    7681.0602    14569.206    13716.032 
   26200          131   0.50078596   0.71560759    6932.7304    7691.3212    14624.052    13717.713 
   26300        131.5    0.5054654   0.71503209    6913.2914    7763.1903    14676.482    13719.391 
   26400          132   0.50267278    0.7111415    6964.4568    7720.2998    14684.757    13721.067 
   26500        132.5   0.50693212   0.73286067    6896.8095    7785.7169    14682.526     13722.74 
   26600          133    0.5073316   0.68044765    6840.3153    7791.8524    14632.168    13724.412 
   26700        133.5   0.50452457   0.59202049    6831.4518    7748.7406    14580.192     13726.08 
   26800          134   0.49807359   0.60899216    7020.5185    7649.6632    14670.182    13727.745 
   26900        134.5   0.50407168   0.76395782    6795.1109    7741.7849    14536.896    13729.408 
   27000          135    0.5006534   0.71958872    6930.5536    7689.2853    14619.839    13731.067 
   27100        135.5   0.49800418   0.62564659    6863.2342    7648.5972    14511.831    13732.724 
   27200          136   0.49889515   0.75816719    6826.8876    7662.2811    14489.169    13734.378 
   27300        136.5   0.49671325   0.72324948    6812.7307    7628.7705    14441.501    13736.028 
   27400          137   0.49499197   0.59399903    6770.1711    7602.3341    14372.505    13737.676 
   27500        137.5   0.49504917   0.62084091    6761.6173    7603.2127     14364.83    13739.321 
   27600          138   0.49777057   0.70176018    6841.8345    7645.0093    14486.844    13740.963 
   27700        138.5   0.49777313   0.74144855    6848.0949    7645.0486    14493.143    13742.602 
   27800          139   0.50566478   0.62913099     6838.689    7766.2525    14604.941    13744.239 
   27900        139.5   0.50229095   0.73831375    6912.6645    7714.4356      14627.1    13745.872 
   28000          140   0.49951723   0.68398758    6842.1199    7671.8354    14513.955    13747.503 
   28100        140.5   0.49968262   0.61591017    6806.6496    7674.3754    14481.025    13749.131 
   28200          141   0.50063429   0.67733976    6870.4861    7688.9917    14559.478    13750.756 
   28300        141.5   0.50084204   0.65226597     6917.262    7692.1824    14609.444    13752.378 
   28400          142   0.50339034   0.64061884    6789.2793    7731.3205      14520.6    13753.996 
   28500        142.5   0.50082731    0.6462511    6824.5152    7691.9562    14516.471    13755.612 
   28600          143   0.50247935   0.70271067    6935.0689    7717.3291    14652.398    13757.225 
   28700        143.5   0.50505268   0.84236776    6789.3926    7756.8516    14546.244    13758.835 
   28800          144   0.49590714   0.64950283    6823.9972    7616.3898    14440.387    13760.443 
   28900        144.5   0.50072574   0.59021166    6852.7798    7690.3963    14543.176    13762.047 
   29000          145    0.4976038   0.64924563    6886.2336    7642.4479    14528.681    13763.649 
   29100        145.5   0.50844313   0.71131774    6818.0518    7808.9238    14626.976    13765.248 
   29200          146   0.50469019   0.64408627    6819.6314    7751.2842    14570.916    13766.844 
   29300        146.5   0.50058136   0.61501811    6824.6277    7688.1788    14512.807    13768.438 
   29400          147   0.49382691    0.7101148    6802.2915    7584.4406    14386.732    13770.028 
   29500        147.5   0.49838524   0.70446785     6831.551    7654.4497    14486.001    13771.616 
   29600          148   0.49226265   0.66402852     6857.609    7560.4159    14418.025    13773.201 
   29700        148.5   0.49716687   0.67717553    6848.6742    7635.7374    14484.412    13774.783 
   29800          149   0.49876742   0.59208306    6861.9066    7660.3194    14522.226    13776.363 
   29900        149.5   0.50042217   0.63879804    6871.3878    7685.7339    14557.122    13777.939 
   30000          150   0.50156259   0.68207344    6832.1194    7703.2491    14535.369    13779.512 
Loop time of 91.7608 on 1 procs for 30000 steps with 10240 atoms

Performance: 141236.732 tau/day, 326.937 timesteps/s
98.1% CPU use with 1 MPI tasks x 1 OpenMP threads

MPI task timing breakdown:
Section |  min time  |  avg time  |  max time  |%varavg| %total
---------------------------------------------------------------
Pair    | 13.029     | 13.029     | 13.029     |   0.0 | 14.20
Bond    | 28.419     | 28.419     | 28.419     |   0.0 | 30.97
Neigh   | 18.123     | 18.123     | 18.123     |   0.0 | 19.75
Comm    | 3.8232     | 3.8232     | 3.8232     |   0.0 |  4.17
Output  | 1.2827     | 1.2827     | 1.2827     |   0.0 |  1.40
Modify  | 25.909     | 25.909     | 25.909     |   0.0 | 28.23
Other   |            | 1.175      |            |       |  1.28

Nlocal:    10240 ave 10240 max 10240 min
Histogram: 1 0 0 0 0 0 0 0 0 0
Nghost:    5840 ave 5840 max 5840 min
Histogram: 1 0 0 0 0 0 0 0 0 0
Neighs:    38072 ave 38072 max 38072 min
Histogram: 1 0 0 0 0 0 0 0 0 0

Total # of neighbors = 38072
Ave neighs/atom = 3.71797
Ave special neighs/atom = 4.8
Neighbor list builds = 2623
Dangerous builds = 414

unfix 2
unfix 3
fix 4 all nve
fix 5 all langevin ${T} ${T} 1 123456
fix 5 all langevin 0.5 ${T} 1 123456
fix 5 all langevin 0.5 0.5 1 123456
fix recen1 all recenter INIT INIT INIT


# RUN
run ${run_steps}
run 30000
Per MPI rank memory allocation (min/avg/max) = 16.42 | 16.42 | 16.42 Mbytes
Step Time Temp Press PotEng KinEng TotEng Volume 
   30000          150   0.50156259   0.68207344    6832.1194    7703.2491    14535.369    13779.512 
   30100        150.5   0.50154207   0.71386632     6849.559    7702.9339    14552.493    13779.512 
   30200          151     0.502746   0.70262015    6850.8536    7721.4244    14572.278    13779.512 
   30300        151.5   0.49738926   0.67629057    6896.0592     7639.153    14535.212    13779.512 
   30400          152   0.50026293    0.6696636    6826.1616    7683.2883     14509.45    13779.512 
   30500        152.5   0.49905832   0.68072261    6880.2271    7664.7871    14545.014    13779.512 
   30600          153   0.49620507   0.65145811     6921.865    7620.9655     14542.83    13779.512 
   30700        153.5   0.50052318   0.73148617    6845.4985    7687.2852    14532.784    13779.512 
   30800          154   0.49689699    0.6723645    6931.3739    7631.5924    14562.966    13779.512 
   30900        154.5    0.4988264   0.65163524    6864.5649    7661.2253     14525.79    13779.512 
   31000          155   0.49315555   0.69470711    6834.4996    7574.1295    14408.629    13779.512 
   31100        155.5   0.50055182   0.67131879    6886.7347    7687.7251     14574.46    13779.512 
   31200          156   0.50415084   0.72491813    6939.9748    7743.0007    14682.975    13779.512 
   31300        156.5   0.49481008   0.66852951    6978.7772    7599.5406    14578.318    13779.512 
   31400          157   0.50125974   0.61845644    6846.9122    7698.5978     14545.51    13779.512 
   31500        157.5   0.49706636   0.68673974    6959.1852    7634.1936    14593.379    13779.512 
   31600          158   0.50286121   0.69192925    6934.0252    7723.1938    14657.219    13779.512 
   31700        158.5   0.49752319   0.65987576    6908.9093      7641.21    14550.119    13779.512 
   31800          159   0.50245873   0.72052412    6895.8767    7717.0124    14612.889    13779.512 
   31900        159.5   0.50395691    0.6960062    6920.5385    7740.0222    14660.561    13779.512 
   32000          160   0.50226362   0.73036265    6917.1816    7714.0158    14631.197    13779.512 
   32100        160.5   0.49964795   0.71577581    6803.5165     7673.843    14477.359    13779.512 
   32200          161   0.50033442   0.73345654    6959.8781    7684.3861    14644.264    13779.512 
   32300        161.5   0.49985676    0.6868649    6901.6015    7677.0501    14578.652    13779.512 
   32400          162   0.49789302   0.63329645    6938.0218      7646.89    14584.912    13779.512 
   32500        162.5   0.50380709   0.68829627    6885.2557    7737.7211    14622.977    13779.512 
   32600          163   0.49974922   0.69700913    6943.7506    7675.3985    14619.149    13779.512 
   32700        163.5    0.5086777   0.66575368    6836.5441    7812.5264     14649.07    13779.512 
   32800          164   0.50113642   0.70325852    6885.2381    7696.7038    14581.942    13779.512 
   32900        164.5   0.50653057   0.65980364    6801.7022    7779.5498    14581.252    13779.512 
   33000          165   0.49951868   0.68177524    6863.0114    7671.8577    14534.869    13779.512 
   33100        165.5   0.50380477   0.72340104    6871.5291    7737.6856    14609.215    13779.512 
   33200          166   0.50380451   0.65432361    6995.4521    7737.6816    14733.134    13779.512 
   33300        166.5   0.50595051   0.66185576    6892.3972    7770.6408    14663.038    13779.512 
   33400          167   0.50785437   0.72345749    6905.4496    7799.8813    14705.331    13779.512 
   33500        167.5   0.50706838   0.63682955    6866.7244    7787.8098    14654.534    13779.512 
   33600          168   0.50265427   0.64821794    6905.2354    7720.0157    14625.251    13779.512 
   33700        168.5   0.49694137   0.69445052    6883.4478     7632.274    14515.722    13779.512 
   33800          169   0.49860328   0.75944731    6809.3555    7657.7985    14467.154    13779.512 
   33900        169.5   0.49498522   0.73292861    6821.2645    7602.2305    14423.495    13779.512 
   34000          170   0.49572518   0.61550253    6783.1255    7613.5951    14396.721    13779.512 
   34100        170.5   0.49360132   0.65498889    6915.1861    7580.9759    14496.162    13779.512 
   34200          171   0.49385714   0.69411835    6772.4168    7584.9048    14357.322    13779.512 
   34300        171.5   0.49173612   0.75919588    6769.3908    7552.3292     14321.72    13779.512 
   34400          172   0.49434921   0.69709296    6837.7529    7592.4624    14430.215    13779.512 
   34500        172.5   0.49622169   0.66181419    6768.8861    7621.2209    14390.107    13779.512 
   34600          173   0.48942955   0.74383431    6888.5152    7516.9037    14405.419    13779.512 
   34700        173.5   0.50059311   0.73647447    6782.3272    7688.3593    14470.687    13779.512 
   34800          174   0.49361362   0.65108545    6952.6332    7581.1647    14533.798    13779.512 
   34900        174.5   0.49900479   0.63472143    6898.5277    7663.9651    14562.493    13779.512 
   35000          175   0.50582332   0.60904791    6831.3532    7768.6874    14600.041    13779.512 
   35100        175.5   0.49684074   0.71877274    6870.8726    7630.7285    14501.601    13779.512 
   35200          176   0.49548769   0.65254992      6985.48    7609.9477    14595.428    13779.512 
   35300        176.5   0.49810096   0.60350298    6918.4174    7650.0836    14568.501    13779.512 
   35400          177   0.49706455   0.74303863    6860.0486    7634.1659    14494.215    13779.512 
   35500        177.5   0.50019731   0.68710978    6849.4107    7682.2804    14531.691    13779.512 
   35600          178   0.50096368   0.61839418    6855.0873    7694.0507    14549.138    13779.512 
   35700        178.5   0.49509041   0.62691489    6874.3201    7603.8461    14478.166    13779.512 
   35800          179   0.49393763   0.55325152    6878.0236    7586.1411    14464.165    13779.512 
   35900        179.5   0.49597725    0.6825711    6840.9677    7617.4667    14458.434    13779.512 
   36000          180   0.49877897   0.65441884    6756.6168    7660.4969    14417.114    13779.512 
   36100        180.5   0.48809775   0.64413251    6811.7008    7496.4493     14308.15    13779.512 
   36200          181   0.49209877   0.70385916     6821.792     7557.899    14379.691    13779.512 
   36300        181.5   0.49483174   0.69062818    6734.9253    7599.8734    14334.799    13779.512 
   36400          182   0.50013939   0.62372809    6809.6015    7681.3908    14490.992    13779.512 
   36500        182.5   0.49294679   0.69410165    6899.5814    7570.9233    14470.505    13779.512 
   36600          183    0.4963628   0.75908837    6907.6212    7623.3881    14531.009    13779.512 
   36700        183.5   0.49927375   0.62597753    6937.9862    7668.0958    14606.082    13779.512 
   36800          184   0.50026117   0.67881646    6894.6652    7683.2611    14577.926    13779.512 
   36900        184.5   0.50521992   0.69630678    6766.6161    7759.4202    14526.036    13779.512 
   37000          185   0.50288744   0.69456395    6821.3866    7723.5967    14544.983    13779.512 
   37100        185.5   0.49922762   0.62730571    6810.4318    7667.3875    14477.819    13779.512 
   37200          186   0.49872869   0.69644413     6930.552    7659.7246    14590.277    13779.512 
   37300        186.5   0.49244399   0.78442024    6853.6204     7563.201    14416.821    13779.512 
   37400          187   0.49492407   0.68721365    6758.1098    7601.2914    14359.401    13779.512 
   37500        187.5   0.49590222   0.69041719    6796.5365    7616.3143    14412.851    13779.512 
   37600          188   0.49554449   0.66082531    6853.7354      7610.82    14464.555    13779.512 
   37700        188.5   0.50371518   0.69723977    6837.1306    7736.3095     14573.44    13779.512 
   37800          189   0.49204222   0.64810279     6894.249    7557.0305    14451.279    13779.512 
   37900        189.5   0.49045569   0.66200612     6938.863    7532.6637    14471.527    13779.512 
   38000          190   0.49332554   0.70423912    6842.3075    7576.7403    14419.048    13779.512 
   38100        190.5   0.49923482   0.69399833    6769.9469     7667.498    14437.445    13779.512 
   38200          191   0.49788187   0.70169663    6770.3748    7646.7186    14417.093    13779.512 
   38300        191.5   0.50080956   0.72593621    6850.0406    7691.6836    14541.724    13779.512 
   38400          192   0.50483759   0.64380362    6814.4896    7753.5482    14568.038    13779.512 
   38500        192.5   0.49771261   0.62568353    6823.9789     7644.119    14468.098    13779.512 
   38600          193   0.49811243   0.69598155    6870.7188    7650.2597    14520.978    13779.512 
   38700        193.5   0.50160269   0.69958532    6769.3823    7703.8649    14473.247    13779.512 
   38800          194   0.49851821   0.67036355    6868.7114     7656.492    14525.203    13779.512 
   38900        194.5   0.50076908    0.6610415    6782.3712    7691.0619    14473.433    13779.512 
   39000          195   0.50005472   0.63757414    6899.4329    7680.0904    14579.523    13779.512 
   39100        195.5   0.50013678   0.71247852    6787.5466    7681.3508    14468.897    13779.512 
   39200          196   0.50372063   0.70872996    6777.0081    7736.3933    14513.401    13779.512 
   39300        196.5   0.50718051   0.67775697    6840.1858    7789.5318    14629.718    13779.512 
   39400          197     0.506147   0.68376054    6891.2108    7773.6587    14664.869    13779.512 
   39500        197.5   0.50489647   0.66312254    6915.3896    7754.4524    14669.842    13779.512 
   39600          198   0.50225152   0.61037292    6957.5456    7713.8299    14671.376    13779.512 
   39700        198.5   0.49984489   0.65703491    6919.1596    7676.8678    14596.027    13779.512 
   39800          199   0.50426054   0.67905082    6889.5679    7744.6854    14634.253    13779.512 
   39900        199.5   0.50236317   0.70632184     6846.315    7715.5447     14561.86    13779.512 
   40000          200   0.49876982   0.72283167    6933.4729    7660.3563    14593.829    13779.512 
   40100        200.5   0.49757111   0.65101642    6867.6964    7641.9459    14509.642    13779.512 
   40200          201   0.49088021   0.70030773    6958.0326    7539.1837    14497.216    13779.512 
   40300        201.5   0.50029811   0.72018108    6899.5604    7683.8285    14583.389    13779.512 
   40400          202   0.49913422   0.66802543    6961.4617    7665.9529    14627.415    13779.512 
   40500        202.5   0.49683112   0.66594614    6868.3331    7630.5808    14498.914    13779.512 
   40600          203   0.49593338   0.58234799    6795.1118    7616.7928    14411.905    13779.512 
   40700        203.5   0.50090278    0.6896187    6885.0476    7693.1153    14578.163    13779.512 
   40800          204   0.49933968   0.77468199    7010.6985    7669.1085    14679.807    13779.512 
   40900        204.5   0.50652916    0.7938109    6869.8545     7779.528    14649.383    13779.512 
   41000          205   0.49924617   0.74709118    6873.0097    7667.6723    14540.682    13779.512 
   41100        205.5   0.49868084   0.63280827    6961.7068    7658.9897    14620.697    13779.512 
   41200          206   0.50350169   0.66435115    6747.6544    7733.0307    14480.685    13779.512 
   41300        206.5   0.49518853   0.59998774    6813.8455    7605.3531    14419.199    13779.512 
   41400          207   0.49540058   0.67309226    6847.2174    7608.6097    14455.827    13779.512 
   41500        207.5   0.49942912   0.72279733    6862.4285    7670.4821    14532.911    13779.512 
   41600          208   0.50211337   0.74047286    6890.5869    7711.7082    14602.295    13779.512 
   41700        208.5   0.50547418   0.66422457    6866.3295    7763.3252    14629.655    13779.512 
   41800          209   0.50718882   0.58648147    6838.9354    7789.6595    14628.595    13779.512 
   41900        209.5   0.50515908   0.75547597    6983.5011    7758.4857    14741.987    13779.512 
   42000          210   0.50778451   0.75418718    6915.6055    7798.8084    14714.414    13779.512 
   42100        210.5   0.49811831   0.72014649    6980.1055      7650.35    14630.456    13779.512 
   42200          211    0.5072319   0.63958084     6834.345    7790.3211    14624.666    13779.512 
   42300        211.5    0.5018593   0.65513643    6904.9596     7707.806    14612.766    13779.512 
   42400          212   0.50572112    0.6621329    6839.1632    7767.1179    14606.281    13779.512 
   42500        212.5   0.50049183   0.65624862    6852.9918    7686.8038    14539.796    13779.512 
   42600          213   0.50075236    0.7241231    6837.0128    7690.8051    14527.818    13779.512 
   42700        213.5   0.50200272   0.71777574    6791.2929    7710.0087    14501.302    13779.512 
   42800          214   0.50147243   0.75262655    6927.1031    7701.8643    14628.967    13779.512 
   42900        214.5   0.49905275   0.74259917    6900.0738    7664.7016    14564.775    13779.512 
   43000          215   0.50348398   0.57646665    6776.4304    7732.7587    14509.189    13779.512 
   43100        215.5   0.50212738   0.68081224    6953.4902    7711.9234    14665.414    13779.512 
   43200          216   0.49735211   0.71195475    6986.7758    7638.5824    14625.358    13779.512 
   43300        216.5   0.50200846   0.71231576    6928.9218    7710.0969    14639.019    13779.512 
   43400          217   0.50554196   0.73443107    6873.1409    7764.3661    14637.507    13779.512 
   43500        217.5   0.50013874   0.68381343     6814.428    7681.3808    14495.809    13779.512 
   43600          218   0.50374425   0.70896708    6812.3173    7736.7561    14549.073    13779.512 
   43700        218.5   0.50078513    0.6358802    6849.6221    7691.3084     14540.93    13779.512 
   43800          219    0.4957231   0.59797554    6824.7202    7613.5633    14438.283    13779.512 
   43900        219.5   0.49718103    0.7156177    6853.6572    7635.9548    14489.612    13779.512 
   44000          220   0.50221194   0.73107743    6812.4847    7713.2222    14525.707    13779.512 
   44100        220.5    0.5020876    0.6773802    6781.0636    7711.3125    14492.376    13779.512 
   44200          221   0.50145846   0.65812374    6798.6766    7701.6498    14500.326    13779.512 
   44300        221.5   0.49695399    0.7450114    6796.1172    7632.4679    14428.585    13779.512 
   44400          222   0.50203089    0.7879838    6748.1153    7710.4414    14458.557    13779.512 
   44500        222.5    0.4999125   0.62883871    6764.6923    7677.9061    14442.598    13779.512 
   44600          223   0.49602246    0.7247018    6889.9445    7618.1609    14508.105    13779.512 
   44700        223.5   0.50591181    0.6745656    6767.8982    7770.0465    14537.945    13779.512 
   44800          224   0.50180176   0.72059532    6948.2181    7706.9223     14655.14    13779.512 
   44900        224.5   0.50266889   0.64687549    6902.4857    7720.2401    14622.726    13779.512 
   45000          225   0.50556482   0.66151162    6965.4198    7764.7173    14730.137    13779.512 
   45100        225.5   0.50381807   0.69522246    6785.1293    7737.8898    14523.019    13779.512 
   45200          226   0.49705665   0.72072151    6806.5463    7634.0445    14440.591    13779.512 
   45300        226.5   0.49614498   0.74945631    6782.8179    7620.0427    14402.861    13779.512 
   45400          227   0.49715751   0.66246777    6721.1372    7635.5937    14356.731    13779.512 
   45500        227.5   0.49904365   0.60737951     6744.464    7664.5619    14409.026    13779.512 
   45600          228   0.49940209   0.65391345     6901.519     7670.067    14571.586    13779.512 
   45700        228.5   0.50731899   0.61433519    6854.8874    7791.6587    14646.546    13779.512 
   45800          229   0.50323741   0.70158874    6871.4308    7728.9717    14600.403    13779.512 
   45900        229.5    0.5056594   0.69443101    6907.0902    7766.1698     14673.26    13779.512 
   46000          230   0.50150918    0.7315169    6836.3238    7702.4288    14538.753    13779.512 
   46100        230.5   0.50052962   0.71388035    6880.2836    7687.3842    14567.668    13779.512 
   46200          231   0.50725243   0.63273609    6844.3385    7790.6365    14634.975    13779.512 
   46300        231.5   0.49896595   0.71047449    6851.7723    7663.3685    14515.141    13779.512 
   46400          232   0.49815658   0.62120712    6848.5892    7650.9379    14499.527    13779.512 
   46500        232.5   0.50329975   0.64609796    6809.7015    7729.9292    14539.631    13779.512 
   46600          233   0.49690318   0.63128054    6692.3432    7631.6875    14324.031    13779.512 
   46700        233.5   0.49330796   0.72217817    6869.3161    7576.4704    14445.786    13779.512 
   46800          234   0.49659404   0.66215648    6802.5402    7626.9395     14429.48    13779.512 
   46900        234.5    0.5000232    0.5636034    6837.1263    7679.6063    14516.733    13779.512 
   47000          235   0.50202806   0.52493952    6834.9831    7710.3979    14545.381    13779.512 
   47100        235.5   0.49813329   0.65025102    6871.3775    7650.5802    14521.958    13779.512 
   47200          236   0.49059235   0.77579332    6880.3042    7534.7626    14415.067    13779.512 
   47300        236.5   0.49807426   0.73123386    6779.6564    7649.6735     14429.33    13779.512 
   47400          237   0.49376226   0.64359704    6880.7914    7583.4477    14464.239    13779.512 
   47500        237.5    0.4925048   0.60055759    6854.0045     7564.135     14418.14    13779.512 
   47600          238   0.49285998   0.73983501    6931.9002      7569.59     14501.49    13779.512 
   47700        238.5   0.49958383   0.71240761    6917.4905    7672.8583    14590.349    13779.512 
   47800          239   0.50074315   0.64312341     6879.849    7690.6637    14570.513    13779.512 
   47900        239.5   0.49901248   0.63806684    6863.8541    7664.0831    14527.937    13779.512 
   48000          240   0.49404864   0.66192593    6860.2114    7587.8461    14448.057    13779.512 
   48100        240.5   0.50213719   0.69248766    6775.1812    7712.0741    14487.255    13779.512 
   48200          241   0.49982844   0.65075991    6841.8251    7676.6151     14518.44    13779.512 
   48300        241.5    0.4977334   0.61277096     6883.157    7644.4384    14527.595    13779.512 
   48400          242   0.49337781   0.63222346    6841.2992    7577.5431    14418.842    13779.512 
   48500        242.5   0.50034053   0.70813777     6788.225      7684.48    14472.705    13779.512 
   48600          243   0.49250806   0.72337859    6892.7367     7564.185    14456.922    13779.512 
   48700        243.5   0.49845338   0.64053399    6854.9818    7655.4963    14510.478    13779.512 
   48800          244   0.50035756   0.65578985    6881.2169    7684.7416    14565.958    13779.512 
   48900        244.5   0.49509479   0.66716188    6897.7598    7603.9133    14501.673    13779.512 
   49000          245   0.49689368   0.75274757    6974.0937    7631.5416    14605.635    13779.512 
   49100        245.5   0.50492786   0.72357522    6808.1638    7754.9346    14563.098    13779.512 
   49200          246   0.50289695   0.62785556    6871.8638    7723.7428    14595.607    13779.512 
   49300        246.5   0.49202862   0.56990559    6897.2304    7556.8216    14454.052    13779.512 
   49400          247   0.49440399   0.62406118    6770.5058    7593.3036    14363.809    13779.512 
   49500        247.5    0.4974124   0.75856342    6837.1286    7639.5083    14476.637    13779.512 
   49600          248   0.49601185   0.63341266    6869.2132    7617.9979    14487.211    13779.512 
   49700        248.5   0.49216419   0.62885808     6828.381    7558.9036    14387.285    13779.512 
   49800          249   0.49244784   0.65856666    6776.7684    7563.2601    14340.028    13779.512 
   49900        249.5   0.49218247   0.69624285    6818.1115    7559.1845    14377.296    13779.512 
   50000          250   0.49875329    0.7044003    6722.5849    7660.1025    14382.687    13779.512 
   50100        250.5   0.48876876   0.69426515    6861.8749     7506.755     14368.63    13779.512 
   50200          251   0.49816445   0.66375459    6766.7035    7651.0587    14417.762    13779.512 
   50300        251.5   0.49813547   0.62825705    6925.0141    7650.6137    14575.628    13779.512 
   50400          252   0.50353148   0.73397772    6768.0638    7733.4883    14501.552    13779.512 
   50500        252.5   0.50546362   0.67503155     6739.522     7763.163    14502.685    13779.512 
   50600          253   0.50242008   0.57913678    6934.3561    7716.4187    14650.775    13779.512 
   50700        253.5   0.49810945   0.67677938    6848.7883     7650.214    14499.002    13779.512 
   50800          254   0.50478243    0.6442888    6853.8112    7752.7009    14606.512    13779.512 
   50900        254.5   0.49736923   0.67821936    6922.1439    7638.8453    14560.989    13779.512 
   51000          255   0.50352135   0.68503647    6881.4947    7733.3327    14614.827    13779.512 
   51100        255.5   0.50035027   0.67583131    6785.7363    7684.6296    14470.366    13779.512 
   51200          256   0.49746536   0.65228906    6891.7739    7640.3218    14532.096    13779.512 
   51300        256.5   0.50131689   0.64753827    6884.9549    7699.4755     14584.43    13779.512 
   51400          257   0.50276097   0.63602953     6831.488    7721.6544    14553.142    13779.512 
   51500        257.5     0.502132   0.66146453    7001.0415    7711.9944    14713.036    13779.512 
   51600          258   0.49781473   0.67757858    6914.2003    7645.6875    14559.888    13779.512 
   51700        258.5   0.49930355   0.62386793    6847.2508    7668.5535    14515.804    13779.512 
   51800          259   0.50139027   0.66074833     6826.647    7700.6025     14527.25    13779.512 
   51900        259.5   0.49916571   0.65880599    6925.0862    7666.4365    14591.523    13779.512 
   52000          260   0.49836775   0.55643593    6874.6962     7654.181    14528.877    13779.512 
   52100        260.5   0.50029511   0.70488573    6911.4197    7683.7825    14595.202    13779.512 
   52200          261   0.50043035   0.73781351     6860.641    7685.8596    14546.501    13779.512 
   52300        261.5   0.49936158   0.66151493    6816.9254    7669.4449     14486.37    13779.512 
   52400          262   0.49763834   0.60159811    6915.3243    7642.9784    14558.303    13779.512 
   52500        262.5   0.49923578    0.6148338    6828.4706    7667.5128    14495.983    13779.512 
   52600          263   0.50018522   0.78410447    6834.6604    7682.0948    14516.755    13779.512 
   52700        263.5   0.49973947   0.67892245    6830.1551    7675.2487    14505.404    13779.512 
   52800          264   0.50462887   0.69233744    6842.6834    7750.3425    14593.026    13779.512 
   52900        264.5   0.50007189   0.70925442     6837.567    7680.3542    14517.921    13779.512 
   53000          265   0.49527735   0.72163218    6870.4465    7606.7172    14477.164    13779.512 
   53100        265.5   0.50974075   0.70558977    6920.2451    7828.8533    14749.098    13779.512 
   53200          266     0.502744    0.6951064    6922.0699    7721.3938    14643.464    13779.512 
   53300        266.5   0.50351827   0.68879246    6892.5807    7733.2853    14625.866    13779.512 
   53400          267   0.49839367   0.73691175    6887.8855    7654.5792    14542.465    13779.512 
   53500        267.5   0.50626161   0.73918357    6847.3687     7775.419    14622.788    13779.512 
   53600          268   0.50278283   0.57216382    6791.7704      7721.99     14513.76    13779.512 
   53700        268.5   0.50225233   0.65222039    6870.3654    7713.8424    14584.208    13779.512 
   53800          269   0.50738299   0.66533709     6882.608    7792.6416     14675.25    13779.512 
   53900        269.5   0.50484333   0.67369162    6826.0433    7753.6364     14579.68    13779.512 
   54000          270   0.50416799   0.61779048    6855.2378     7743.264    14598.502    13779.512 
   54100        270.5   0.50215929   0.76310698    6879.1153    7712.4135    14591.529    13779.512 
   54200          271    0.5044654   0.72684642    6907.5502    7747.8318    14655.382    13779.512 
   54300        271.5   0.50282397   0.55518056    6913.1349     7722.622    14635.757    13779.512 
   54400          272   0.50269617   0.73494473    6907.1455    7720.6592    14627.805    13779.512 
   54500        272.5    0.4984996   0.74425599    6908.0075     7656.206    14564.214    13779.512 
   54600          273    0.4993236   0.69628092    6875.4079    7668.8616    14544.269    13779.512 
   54700        273.5   0.50215501   0.70207004    6822.1209    7712.3477    14534.469    13779.512 
   54800          274   0.49557033   0.58188071    6895.3248    7611.2168    14506.542    13779.512 
   54900        274.5   0.49986605   0.62376322    6894.9762    7677.1927    14572.169    13779.512 
   55000          275   0.50289295   0.65402645    6862.7004    7723.6813    14586.382    13779.512 
   55100        275.5   0.50613684   0.75252516    6905.5227    7773.5026    14679.025    13779.512 
   55200          276   0.50734173   0.77815076    6925.4176    7792.0079    14717.425    13779.512 
   55300        276.5   0.50278708   0.68744964    6825.4002    7722.0553    14547.455    13779.512 
   55400          277   0.49833231   0.52624766    6942.1344    7653.6367    14595.771    13779.512 
   55500        277.5   0.50321444   0.57924895    6834.6626    7728.6189    14563.282    13779.512 
   55600          278   0.49970708   0.68717034    6826.9564    7674.7511    14501.707    13779.512 
   55700        278.5   0.49689283   0.66122859    6836.5413    7631.5285     14468.07    13779.512 
   55800          279    0.5023743   0.63734456    6779.7443    7715.7157     14495.46    13779.512 
   55900        279.5   0.50179298   0.68017147    6801.3204    7706.7874    14508.108    13779.512 
   56000          280   0.50098313   0.67313987    6820.8966    7694.3493    14515.246    13779.512 
   56100        280.5   0.49969394   0.72809971    6880.6182    7674.5494    14555.168    13779.512 
   56200          281   0.49465823   0.69831513     6919.572    7597.2085     14516.78    13779.512 
   56300        281.5   0.49889659    0.7281783    6823.6394    7662.3033    14485.943    13779.512 
   56400          282   0.49821411   0.76459904    6785.1217    7651.8214    14436.943    13779.512 
   56500        282.5   0.49827978   0.68509567    6821.6527      7652.83    14474.483    13779.512 
   56600          283   0.50003598   0.68723199     6770.372    7679.8026    14450.175    13779.512 
   56700        283.5   0.49167517   0.65921173    6900.8559    7551.3931    14452.249    13779.512 
   56800          284   0.49593844   0.64667151    6813.9823    7616.8706    14430.853    13779.512 
   56900        284.5   0.50066442   0.75068352    6857.5075    7689.4545    14546.962    13779.512 
   57000          285   0.50130892   0.69344206    6856.5794    7699.3531    14555.932    13779.512 
   57100        285.5   0.49546305   0.62574153     6875.571    7609.5692     14485.14    13779.512 
   57200          286   0.49439552   0.61575235    6917.8312    7593.1736    14511.005    13779.512 
   57300        286.5   0.50225106    0.7567398    6883.7377    7713.8229    14597.561    13779.512 
   57400          287   0.49950068   0.70017507     6889.878    7671.5812    14561.459    13779.512 
   57500        287.5   0.50073514   0.64317289     6891.132    7690.5407    14581.673    13779.512 
   57600          288   0.50366854   0.63222287    6784.1982    7735.5933    14519.791    13779.512 
   57700        288.5   0.50227824   0.72987198    6892.5079    7714.2404    14606.748    13779.512 
   57800          289   0.49882474   0.68583502    6835.8822    7661.1997    14497.082    13779.512 
   57900        289.5    0.5073783   0.71492275    6818.4783    7792.5696    14611.048    13779.512 
   58000          290   0.50111516   0.67629312    6850.1447    7696.3772    14546.522    13779.512 
   58100        290.5   0.50148181   0.59153801    6849.1806    7702.0085    14551.189    13779.512 
   58200          291   0.50088808   0.66004693    6809.3496    7692.8895    14502.239    13779.512 
   58300        291.5   0.50358829   0.61650042    6814.2173    7734.3608    14548.578    13779.512 
   58400          292   0.49397267   0.63366271    6877.2487    7586.6793    14463.928    13779.512 
   58500        292.5   0.49759762   0.61695034    6819.6442    7642.3531    14461.997    13779.512 
   58600          293    0.4996342   0.71164856    6794.7225    7673.6318    14468.354    13779.512 
   58700        293.5   0.49368108   0.75981372    6822.9683    7582.2009    14405.169    13779.512 
   58800          294   0.49029001   0.72703289    6850.7651    7530.1192    14380.884    13779.512 
   58900        294.5   0.50089176   0.61552621    6730.3626    7692.9461    14423.309    13779.512 
   59000          295   0.50140282   0.60067826    6920.0915    7700.7952    14620.887    13779.512 
   59100        295.5   0.49658721   0.72997765    6930.3434    7626.8346    14557.178    13779.512 
   59200          296     0.500802   0.60334755    6908.0977    7691.5675    14599.665    13779.512 
   59300        296.5   0.50453373   0.72074538    6925.1299    7748.8813    14674.011    13779.512 
   59400          297   0.50443028   0.76090031     6902.062    7747.2924    14649.354    13779.512 
   59500        297.5   0.50603374   0.67342832    6825.9048    7771.9191    14597.824    13779.512 
   59600          298   0.50027601    0.6260424    6815.8466     7683.489    14499.336    13779.512 
   59700        298.5   0.49861362   0.64692198    6819.3035    7657.9572    14477.261    13779.512 
   59800          299   0.50051821   0.65164071    6894.9956    7687.2089    14582.205    13779.512 
   59900        299.5   0.50309667   0.62361358    6775.6828    7726.8102    14502.493    13779.512 
   60000          300   0.50064287   0.65289987    6909.4841    7689.1234    14598.608    13779.512 
Loop time of 79.9417 on 1 procs for 30000 steps with 10240 atoms

Performance: 162118.216 tau/day, 375.274 timesteps/s
98.1% CPU use with 1 MPI tasks x 1 OpenMP threads

MPI task timing breakdown:
Section |  min time  |  avg time  |  max time  |%varavg| %total
---------------------------------------------------------------
Pair    | 11.332     | 11.332     | 11.332     |   0.0 | 14.18
Bond    | 20.867     | 20.867     | 20.867     |   0.0 | 26.10
Neigh   | 19.106     | 19.106     | 19.106     |   0.0 | 23.90
Comm    | 4.0991     | 4.0991     | 4.0991     |   0.0 |  5.13
Output  | 1.0602     | 1.0602     | 1.0602     |   0.0 |  1.33
Modify  | 22.147     | 22.147     | 22.147     |   0.0 | 27.70
Other   |            | 1.33       |            |       |  1.66

Nlocal:    10240 ave 10240 max 10240 min
Histogram: 1 0 0 0 0 0 0 0 0 0
Nghost:    5934 ave 5934 max 5934 min
Histogram: 1 0 0 0 0 0 0 0 0 0
Neighs:    38047 ave 38047 max 38047 min
Histogram: 1 0 0 0 0 0 0 0 0 0

Total # of neighbors = 38047
Ave neighs/atom = 3.71553
Ave special neighs/atom = 4.8
Neighbor list builds = 2634
Dangerous builds = 400
write_restart restart.time*

#This section  of codes allows looping over the list of T values
clear
OMP_NUM_THREADS environment is not set. Defaulting to 1 thread. (../comm.cpp:94)
  using 1 OpenMP thread(s) per MPI task
next mix_steps
jump in.run_loop loop  #jumps back to loop label
read_restart restart.time*
  restoring atom style molecular from restart
  orthogonal box = (-0.0820105 -0.181286 -0.0820105) to (18.322 40.5013 18.322)
  1 by 1 by 1 MPI processor grid
  restoring pair style lj/cut from restart
  restoring bond style harmonic from restart
  restoring angle style harmonic from restart
  10240 atoms
  9216 bonds
  8192 angles
  2 = max # of 1-2 neighbors
  2 = max # of 1-3 neighbors
  4 = max # of 1-4 neighbors
  6 = max # of special neighbors
  special bonds CPU = 0.0229311 secs
  read_restart CPU = 0.041903 secs
# this reads in latest restart file, * is wildcard for timestep


# THERMAL
timestep ${t_step}
timestep 0.005
thermo   100
thermo_style custom step time temp press pe ke etotal vol
thermo_modify norm no


# DUMP OUTPUT
dump  1  all custom 5000 output_T_${T}_time_*.dump id mol type x y z vx vy vz
dump  1  all custom 5000 output_T_0.5_time_*.dump id mol type x y z vx vy vz
# dumps all positions etc every N  steps
dump_modify 1 sort id

# FIX
fix 2 all nph iso 0.0001 0.0001 1000   #reduced target pressure here
fix 3 all langevin ${T} ${T} 1 123456 #as above
fix 3 all langevin 0.5 ${T} 1 123456 
fix 3 all langevin 0.5 0.5 1 123456 
run ${mix_steps}
run 20000
Neighbor list info ...
  update every 1 steps, delay 10 steps, check yes
  max neighbors/atom: 2000, page size: 100000
  master list distance cutoff = 1.42
  ghost atom cutoff = 1.9
  binsize = 0.71, bins = 26 58 26
  1 neighbor lists, perpetual/occasional/extra = 1 0 0
  (1) pair lj/cut, perpetual
      attributes: half, newton on
      pair build: half/bin/newton
      stencil: half/bin/3d/newton
      bin: standard
Per MPI rank memory allocation (min/avg/max) = 10.33 | 10.33 | 10.33 Mbytes
Step Time Temp Press PotEng KinEng TotEng Volume 
   60000            0   0.50064287   0.65289987    6909.4841    7689.1234    14598.608    13779.512 
   60100          0.5   0.50296164   0.69613439    6889.0732    7724.7364     14613.81    13779.521 
   60200            1   0.50644459   0.63761097      6762.51    7778.2293    14540.739    13779.548 
   60300          1.5   0.50404419   0.64651057    6854.4637    7741.3627    14595.826    13779.593 
   60400            2   0.50248204   0.70940392    6852.3531    7717.3704    14569.723    13779.657 
   60500          2.5   0.50120549   0.67236457     6816.207    7697.7645    14513.971     13779.74 
   60600            3    0.5007609   0.68293333    6899.6412    7690.9362    14590.577    13779.842 
   60700          3.5   0.50145548   0.70392387    6828.1143     7701.604    14529.718    13779.963 
   60800            4   0.49833097   0.67308121    6983.4905    7653.6162    14637.107    13780.102 
   60900          4.5   0.49296657   0.69164586    6955.0865    7571.2271    14526.314    13780.262 
   61000            5    0.4994052   0.74327043     6832.639    7670.1147    14502.754     13780.44 
   61100          5.5   0.49870046   0.75302615    6853.8288    7659.2911     14513.12    13780.637 
   61200            6   0.49825778   0.64784344    6990.9498    7652.4921    14643.442    13780.853 
   61300          6.5   0.50296837   0.55454072    6857.7536    7724.8397    14582.593    13781.087 
   61400            7   0.50217659    0.5924029    6832.6333    7712.6792    14545.312     13781.34 
   61500          7.5   0.49853871   0.71665706    6856.6334    7656.8068     14513.44     13781.61 
   61600            8    0.4977523    0.6835857    6786.2367    7644.7286    14430.965    13781.899 
   61700          8.5   0.49845273    0.6807842    6847.8998    7655.4862    14503.386    13782.206 
   61800            9   0.49754588   0.67221918    6876.3447    7641.5584    14517.903    13782.532 
   61900          9.5   0.49877256    0.6921504    6904.9151    7660.3983    14565.313    13782.877 
   62000           10   0.50095641   0.71464564    6826.4313     7693.939     14520.37    13783.241 
   62100         10.5   0.50046462   0.73078841    6801.3103    7686.3858    14487.696    13783.624 
   62200           11   0.49713849   0.69567422    6885.7053    7635.3015    14521.007    13784.026 
   62300         11.5   0.49715598   0.76659668    6849.0196    7635.5702     14484.59    13784.447 
   62400           12   0.49829935   0.65252121    6914.1231    7653.1306    14567.254    13784.887 
   62500         12.5   0.50313113   0.64744964    6798.4803    7727.3395     14525.82    13785.346 
   62600           13   0.50302157   0.64509648    6798.6781    7725.6568    14524.335    13785.823 
   62700         13.5    0.5077776   0.62655395    6746.6557    7798.7023    14545.358    13786.317 
   62800           14    0.5048758   0.71414011    6806.2284     7754.135    14560.363    13786.831 
   62900         14.5   0.49659351   0.68892589    6895.5193    7626.9314    14522.451    13787.364 
   63000           15   0.49960464   0.75224731     6845.574    7673.1779    14518.752    13787.916 
   63100         15.5    0.5050335   0.75293782    6790.6453    7756.5571    14547.202    13788.487 
   63200           16   0.50720726   0.63984779    6843.1258    7789.9426    14633.068    13789.079 
   63300         16.5   0.49889138   0.63103963    6915.8141    7662.2232    14578.037    13789.688 
   63400           17   0.50114421   0.58951759    6926.0454    7696.8233    14622.869    13790.317 
   63500         17.5   0.49935621   0.69613472    6909.0797    7669.3624    14578.442    13790.964 
   63600           18    0.5051121   0.69902856     6875.804    7757.7642    14633.568     13791.63 
   63700         18.5   0.49962569   0.67147748    6968.8024    7673.5012    14642.304    13792.314 
   63800           19   0.49636938   0.57777785    6935.7662    7623.4891    14559.255    13793.015 
   63900         19.5   0.50014102   0.68103769    6720.4271    7681.4159    14401.843    13793.735 
   64000           20   0.49311864   0.65453109    6774.6937    7573.5626    14348.256    13794.472 
   64100         20.5   0.49249845   0.63780742    6731.5663    7564.0375    14295.604    13795.227 
   64200           21   0.49971373   0.69918191    6703.5037    7674.8533    14378.357    13796.001 
   64300         21.5   0.49449974   0.67244681    6761.9379    7594.7743    14356.712    13796.793 
   64400           22   0.50126028   0.69253092    6723.9849    7698.6061    14422.591    13797.603 
   64500         22.5   0.50107153   0.70766522    6750.6831    7695.7071     14446.39    13798.432 
   64600           23   0.49477816   0.62197179    6770.1966    7599.0504    14369.247     13799.28 
   64700         23.5   0.49890574   0.67589891    6811.6282    7662.4438    14474.072    13800.147 
   64800           24   0.49991569   0.70495718    6787.3896    7677.9551    14465.345    13801.031 
   64900         24.5   0.49985089    0.7126106     6830.141    7676.9599    14507.101    13801.935 
   65000           25   0.49848731    0.6286433    6865.4393    7656.0173    14521.457    13802.858 
   65100         25.5   0.50505159   0.75490965    6811.2825    7756.8349    14568.117    13803.799 
   65200           26    0.5029865   0.77818241    6937.9526    7725.1181    14663.071     13804.76 
   65300         26.5   0.50524986   0.63727413    6925.8407    7759.8799    14685.721     13805.74 
   65400           27   0.50539437   0.64233893    6875.2227    7762.0995    14637.322    13806.739 
   65500         27.5   0.50702943   0.66611676    6919.0741    7787.2115    14706.286    13807.757 
   65600           28   0.49563548   0.62599524    6915.2165    7612.2175    14527.434    13808.793 
   65700         28.5   0.49468818   0.67091381    6793.4425    7597.6683    14391.111    13809.848 
   65800           29   0.49924248   0.77739012    6758.9611    7667.6156    14426.577    13810.921 
   65900         29.5   0.50282147   0.67257594     6776.269    7722.5836    14498.853    13812.012 
   66000           30   0.49931251   0.67065963    6725.8365    7668.6912    14394.528    13813.121 
   66100         30.5   0.49651964   0.63565388    6772.8731     7625.797     14398.67    13814.249 
   66200           31   0.48907048   0.62528784    6892.7403     7511.389    14404.129    13815.395 
   66300         31.5   0.50174042   0.61270834    6825.8408    7705.9802    14531.821    13816.559 
   66400           32   0.49696674   0.68304723     6850.514    7632.6636    14483.178    13817.741 
   66500         32.5   0.50025234    0.6394357    6882.8715    7683.1256    14565.997     13818.94 
   66600           33   0.49425684   0.74544319    7096.1418    7591.0437    14687.185    13820.158 
   66700         33.5   0.50156124   0.64032412    6914.6012    7703.2283    14617.829    13821.395 
   66800           34   0.50093097   0.61851355    6802.8532    7693.5484    14496.402     13822.65 
   66900         34.5    0.5052916   0.69709021    6849.7354    7760.5211    14610.257    13823.924 
   67000           35   0.50367336   0.72951657    6766.8224    7735.6673     14502.49    13825.217 
   67100         35.5   0.50435459    0.6841385    6837.9137      7746.13    14584.044    13826.528 
   67200           36   0.49871326   0.53023801    6899.0117    7659.4876    14558.499    13827.858 
   67300         36.5    0.5050457   0.65629098    6886.0655    7756.7444     14642.81    13829.206 
   67400           37   0.49784078    0.7214435    6983.7345    7646.0877    14629.822    13830.571 
   67500         37.5   0.50038599   0.77008085      6904.57    7685.1783    14589.748    13831.955 
   67600           38   0.50318831   0.78425901    6932.3743    7728.2177    14660.592    13833.356 
   67700         38.5   0.50252672    0.6513708    6900.1712    7718.0566    14618.228    13834.775 
   67800           39   0.49836925   0.65657842    6882.6452    7654.2041    14536.849    13836.211 
   67900         39.5   0.49758081   0.68656485    6789.8865    7642.0948    14431.981    13837.665 
   68000           40   0.48875384   0.71871738     6889.206    7506.5258    14395.732    13839.136 
   68100         40.5   0.49435174   0.62669199    6845.7413    7592.5012    14438.242    13840.625 
   68200           41   0.50105973    0.6615943    6834.1124    7695.5258    14529.638    13842.132 
   68300         41.5   0.50954906   0.70501157    6751.3608    7825.9093     14577.27    13843.656 
   68400           42   0.50577569    0.7194458    6825.3732    7767.9559    14593.329    13845.198 
   68500         42.5   0.49893705   0.63616566    6852.5348    7662.9247    14515.459    13846.758 
   68600           43   0.50252043   0.56560877    6822.9837      7717.96    14540.944    13848.336 
   68700         43.5   0.49924477   0.67239238    6910.6067    7667.6508    14578.257    13849.931 
   68800           44   0.50267536   0.63607635    6996.2972    7720.3394    14716.637    13851.542 
   68900         44.5   0.50074139   0.65259224    6973.1652    7690.6366    14663.802    13853.169 
   69000           45   0.50093743   0.68134814    6954.8449    7693.6475    14648.492    13854.814 
   69100         45.5   0.50164932   0.72114509    6962.5019    7704.5811    14667.083    13856.475 
   69200           46   0.50277035   0.67086513    6977.4092    7721.7985    14699.208    13858.152 
   69300         46.5   0.50182847   0.58650759    6855.6758    7707.3325    14563.008    13859.845 
   69400           47   0.49446527   0.68061381    6831.7049    7594.2449     14425.95    13861.554 
   69500         47.5   0.49721004    0.7079626    6897.7674    7636.4004    14534.168    13863.279 
   69600           48   0.50008902    0.7245266    6836.3548    7680.6171    14516.972     13865.02 
   69700         48.5   0.49685241   0.68992316    6844.1366    7630.9077    14475.044    13866.778 
   69800           49   0.49659302   0.62944493    6811.0329    7626.9238    14437.957    13868.551 
   69900         49.5   0.49961729   0.62014973    6798.1132    7673.3722    14471.485     13870.34 
   70000           50   0.49697849   0.69390963    6793.1047    7632.8441    14425.949    13872.145 
   70100         50.5   0.48990409   0.72245169    6898.2072    7524.1919    14422.399    13873.965 
   70200           51   0.50019478   0.60869309    6845.5815    7682.2415    14527.823      13875.8 
   70300         51.5   0.49883929   0.65786758    6887.4469    7661.4232     14548.87     13877.65 
   70400           52   0.49338227   0.64627217     6956.605    7577.6116    14534.217    13879.515 
   70500         52.5   0.49927197   0.71724845    6928.2223    7668.0686    14596.291    13881.395 
   70600           53   0.50211913   0.60364751    6911.9312    7711.7967    14623.728    13883.289 
   70700         53.5   0.50337665   0.73110358    6790.8785    7731.1103    14521.989    13885.197 
   70800           54   0.49990812   0.71468004    6838.7646    7677.8389    14516.603    13887.119 
   70900         54.5    0.4933314   0.64007888    6882.5571    7576.8304    14459.387    13889.055 
   71000           55    0.4990381   0.62086873    6775.2456    7664.4767    14439.722    13891.005 
   71100         55.5   0.50014364   0.63756756    6839.2314     7681.456    14520.687    13892.969 
   71200           56   0.49921346   0.74024438    6907.5892    7667.1699    14574.759    13894.946 
   71300         56.5   0.49522891   0.65909104    6837.3562    7605.9732    14443.329    13896.937 
   71400           57   0.50297552   0.58948418    6901.0756    7724.9495    14626.025    13898.942 
[...]
  551800          559   0.49430669   0.33086168    6820.1522    7591.8093    14411.961    18291.481 
  551900        559.5   0.50121287   0.28234269    6748.9569    7697.8779    14446.835    18291.481 
  552000          560   0.50249305   0.34800082    6773.2352    7717.5395    14490.775    18291.481 
  552100        560.5   0.50031572   0.34247138     6716.639    7684.0989    14400.738    18291.481 
  552200          561   0.50144882   0.30209026    6829.2998    7701.5018    14530.802    18291.481 
  552300        561.5   0.50192814   0.35788989    6878.3026    7708.8633    14587.166    18291.481 
  552400          562   0.49763466     0.367906    6765.0884     7642.922     14408.01    18291.481 
  552500        562.5   0.49748861   0.33117999    6816.2184    7640.6788    14456.897    18291.481 
  552600          563   0.49659394   0.21817505    6862.3096     7626.938    14489.248    18291.481 
  552700        563.5   0.49786235   0.27650227    6890.4259    7646.4189    14536.845    18291.481 
  552800          564   0.50047339   0.36911584    6829.5862    7686.5205    14516.107    18291.481 
  552900        564.5   0.50487617   0.36388248    6820.1219    7754.1406    14574.263    18291.481 
  553000          565   0.50119326   0.31018513    6855.9496    7697.5767    14553.526    18291.481 
  553100        565.5   0.50009684   0.33095922    6831.8262    7680.7372    14512.563    18291.481 
  553200          566   0.50245443   0.25849483    6839.8194    7716.9464    14556.766    18291.481 
  553300        566.5    0.4918153   0.28837037    6935.5174    7553.5452    14489.063    18291.481 
  553400          567   0.50202072   0.37880587    6721.0691    7710.2852    14431.354    18291.481 
  553500        567.5   0.49526879   0.39911202    6797.3293    7606.5857    14403.915    18291.481 
  553600          568   0.49870333   0.31644945    6877.7647    7659.3352      14537.1    18291.481 
  553700        568.5     0.504009   0.26026749    6820.0202    7740.8222    14560.842    18291.481 
  553800          569   0.49933037   0.39113282    6814.3417    7668.9655    14483.307    18291.481 
  553900        569.5   0.50432175   0.34570368    6821.2477    7745.6256    14566.873    18291.481 
  554000          570   0.49839566   0.31624512    6811.6114    7654.6097    14466.221    18291.481 
  554100        570.5    0.5004059   0.35507975    6868.6234    7685.4839    14554.107    18291.481 
  554200          571   0.50565638   0.38387442    6855.1489    7766.1235    14621.272    18291.481 
  554300        571.5   0.50080002   0.31889293    6854.5191    7691.5371    14546.056    18291.481 
  554400          572    0.5033715    0.3520989    6920.3176    7731.0312    14651.349    18291.481 
  554500        572.5   0.50361446   0.33152459    6968.4032    7734.7627    14703.166    18291.481 
  554600          573    0.5036468   0.31690269    6861.2881    7735.2594    14596.548    18291.481 
  554700        573.5   0.50263513   0.34822937    6921.2158    7719.7216    14640.937    18291.481 
  554800          574   0.50767084   0.42881175     6826.429    7797.0625    14623.492    18291.481 
  554900        574.5   0.50925714   0.38182392    6792.3523    7821.4258    14613.778    18291.481 
  555000          575   0.50020477   0.32599869    6892.7362     7682.395    14575.131    18291.481 
  555100        575.5   0.49898255   0.27858925     6847.141    7663.6236    14510.765    18291.481 
  555200          576   0.49754662   0.41356592     6809.018    7641.5697    14450.588    18291.481 
  555300        576.5   0.49921714   0.38297927    6827.5765    7667.2265    14494.803    18291.481 
  555400          577    0.5025552   0.31065631    6783.3151     7718.494    14501.809    18291.481 
  555500        577.5   0.50919029   0.27886082    6832.9276     7820.399    14653.327    18291.481 
  555600          578   0.50645427   0.33237837     6864.151    7778.3779    14642.529    18291.481 
  555700        578.5   0.50177774   0.33742308    6757.3829    7706.5533    14463.936    18291.481 
  555800          579    0.4954509    0.3538903    6779.0993    7609.3827    14388.482    18291.481 
  555900        579.5   0.49820157   0.33964566    6869.6176    7651.6288    14521.246    18291.481 
  556000          580   0.49942712   0.35190183    6820.9916    7670.4515    14491.443    18291.481 
  556100        580.5   0.50362373   0.32461346    6805.8806    7734.9051    14540.786    18291.481 
  556200          581   0.49882579   0.32023499    6772.4598    7661.2159    14433.676    18291.481 
  556300        581.5   0.49457742   0.35212465    6941.3606    7595.9674    14537.328    18291.481 
  556400          582   0.50376797   0.37418127    6918.7104    7737.1203    14655.831    18291.481 
  556500        582.5   0.50369572   0.34208428    6959.9315    7736.0107    14695.942    18291.481 
  556600          583   0.50316792   0.28446513    6866.3946    7727.9045    14594.299    18291.481 
  556700        583.5   0.49845419   0.34419339    6963.7707    7655.5087    14619.279    18291.481 
  556800          584   0.49905309   0.34262512    6888.3207    7664.7069    14553.028    18291.481 
  556900        584.5   0.50607164   0.35160312    6712.5628    7772.5012    14485.064    18291.481 
  557000          585   0.49597036   0.29455511    6791.0647    7617.3608    14408.426    18291.481 
  557100        585.5   0.49829667   0.35955329    6774.5802    7653.0894     14427.67    18291.481 
  557200          586   0.49775464   0.34762565     6755.685    7644.7646     14400.45    18291.481 
  557300        586.5   0.50235413   0.36272876    6775.1229    7715.4059    14490.529    18291.481 
  557400          587   0.49858452   0.33014851    6793.5543    7657.5103    14451.065    18291.481 
  557500        587.5    0.4901887   0.30788114    6839.2119    7528.5631    14367.775    18291.481 
  557600          588   0.50023076   0.31923383    6807.9961    7682.7941     14490.79    18291.481 
  557700        588.5   0.50122265   0.31860865    6770.6336    7698.0281    14468.662    18291.481 
  557800          589   0.49805481   0.35245799    6842.0922    7649.3749    14491.467    18291.481 
  557900        589.5   0.49844083   0.40973041    6773.6827    7655.3035    14428.986    18291.481 
  558000          590   0.49787263   0.36473435    6771.0439    7646.5768    14417.621    18291.481 
  558100        590.5   0.49883556   0.29967588    6791.2569    7661.3659    14452.623    18291.481 
  558200          591   0.50024503   0.23584267    6810.6199    7683.0133    14493.633    18291.481 
  558300        591.5   0.50326918   0.31203486    6756.1926    7729.4597    14485.652    18291.481 
  558400          592   0.49959678   0.33216796    6821.9143    7673.0571    14494.971    18291.481 
  558500        592.5   0.50021854   0.33977772    6896.8768    7682.6064    14579.483    18291.481 
  558600          593   0.50962614   0.40556631    6824.9457    7827.0931    14652.039    18291.481 
  558700        593.5   0.49933887   0.33091417    6928.7396     7669.096    14597.836    18291.481 
  558800          594   0.49521702   0.31711337    6923.8667    7605.7906    14529.657    18291.481 
  558900        594.5   0.49169787   0.29026299    6786.0354    7551.7418    14337.777    18291.481 
  559000          595   0.49240854   0.27016901    6794.8422    7562.6566    14357.499    18291.481 
  559100        595.5   0.49260295   0.36274815    6839.8326    7565.6425    14405.475    18291.481 
  559200          596   0.50195812   0.38805305    6777.3807    7709.3239    14486.705    18291.481 
  559300        596.5   0.50053028   0.32424353    6840.3989    7687.3944    14527.793    18291.481 
  559400          597   0.50037024   0.33420115    6867.9681    7684.9363    14552.904    18291.481 
  559500        597.5   0.48931783   0.31162853    6808.7564    7515.1879    14323.944    18291.481 
  559600          598   0.49705054   0.34416262    6750.0444    7633.9507    14383.995    18291.481 
  559700        598.5   0.49917027   0.39575642     6808.285    7666.5066    14474.792    18291.481 
  559800          599   0.49860968   0.32648622    6886.1638    7657.8967    14544.061    18291.481 
  559900        599.5   0.50539408    0.3070377    6787.1438    7762.0949    14549.239    18291.481 
  560000          600   0.49542077   0.37697978    6880.2739    7608.9199    14489.194    18291.481 
  560100        600.5   0.49792082   0.29964231    6780.4021     7647.317    14427.719    18291.481 
  560200          601   0.49532212      0.25836     6810.453    7607.4048    14417.858    18291.481 
  560300        601.5   0.49668143   0.33823435    6948.8788    7628.2818    14577.161    18291.481 
  560400          602    0.5016867   0.38547495    6901.7477    7705.1551    14606.903    18291.481 
  560500        602.5   0.49927281   0.27131231    6916.6807    7668.0815    14584.762    18291.481 
  560600          603   0.51010528   0.34299792    6857.1044    7834.4519    14691.556    18291.481 
  560700        603.5   0.50297762   0.33711783    6924.1458    7724.9817    14649.127    18291.481 
  560800          604   0.50366371   0.36328287    6837.4043     7735.519    14572.923    18291.481 
  560900        604.5    0.5068753   0.38029737    6861.4763    7784.8443    14646.321    18291.481 
  561000          605   0.50276946   0.30087582    6973.8779    7721.7847    14695.663    18291.481 
  561100        605.5   0.50183932   0.33205309    6945.2781    7707.4992    14652.777    18291.481 
  561200          606   0.50494181   0.37243858    6812.4511    7755.1487      14567.6    18291.481 
  561300        606.5     0.503699   0.39915294    6937.5232    7736.0612    14673.584    18291.481 
  561400          607   0.50733646   0.27489121    6959.3895     7791.927    14751.316    18291.481 
  561500        607.5   0.50722157    0.3000413    6881.3717    7790.1624    14671.534    18291.481 
  561600          608   0.50092275   0.33093333    6937.1763     7693.422    14630.598    18291.481 
  561700        608.5   0.50645662   0.36247203    6907.1124     7778.414    14685.526    18291.481 
  561800          609   0.49884929   0.33882745    6841.9083    7661.5768    14503.485    18291.481 
  561900        609.5   0.50130212   0.35929499    6901.0792    7699.2486    14600.328    18291.481 
  562000          610   0.49714231   0.35824703    6876.7682    7635.3602    14512.128    18291.481 
  562100        610.5   0.49709766   0.28118941    6912.1859    7634.6744     14546.86    18291.481 
  562200          611   0.50440277   0.31867596     6863.876      7746.87    14610.746    18291.481 
  562300        611.5    0.5032811   0.28934652    6964.6515    7729.6428    14694.294    18291.481 
  562400          612   0.50170192   0.35997836    6916.6668    7705.3889    14622.056    18291.481 
  562500        612.5    0.5065207   0.35282261    6860.9896    7779.3982    14640.388    18291.481 
  562600          613   0.50618882   0.29149759    6901.6701    7774.3011    14675.971    18291.481 
  562700        613.5   0.50267704   0.36401146     6841.232    7720.3653    14561.597    18291.481 
  562800          614    0.4992723   0.35816638    6915.7095    7668.0735    14583.783    18291.481 
  562900        614.5   0.49736094   0.29257287    6924.1372    7638.7181    14562.855    18291.481 
  563000          615   0.50006545   0.29381925    6936.9181    7680.2552    14617.173    18291.481 
  563100        615.5    0.5011317   0.34962067     6906.641    7696.6311    14603.272    18291.481 
  563200          616   0.50902609   0.33429593    6918.0776    7817.8773    14735.955    18291.481 
  563300        616.5    0.5052543   0.33611337     6909.686    7759.9482    14669.634    18291.481 
  563400          617   0.50754104   0.33600733    6901.5924     7795.069    14696.661    18291.481 
  563500        617.5   0.50358637   0.33394515    6804.1587    7734.3312     14538.49    18291.481 
  563600          618   0.50240208   0.29362646    6854.5498    7716.1423    14570.692    18291.481 
  563700        618.5   0.49504514   0.35838287    6953.2543    7603.1508    14556.405    18291.481 
  563800          619   0.49640429   0.38449471    6873.3548    7624.0253     14497.38    18291.481 
  563900        619.5   0.50653355   0.32358289     6901.911    7779.5956    14681.507    18291.481 
  564000          620   0.50587693   0.30072988    6973.1588    7769.5109     14742.67    18291.481 
  564100        620.5   0.49823298   0.34557267    6937.9594    7652.1112    14590.071    18291.481 
  564200          621    0.4969107   0.35193694    6848.3663    7631.8029    14480.169    18291.481 
  564300        621.5   0.49580302   0.39753494    6938.5654    7614.7906    14553.356    18291.481 
  564400          622   0.49902423   0.29933504    6856.4519    7664.2636    14520.716    18291.481 
  564500        622.5   0.49246893   0.30337576    6794.7702    7563.5841    14358.354    18291.481 
  564600          623   0.49970683   0.34400764    6794.6284    7674.7473    14469.376    18291.481 
  564700        623.5   0.49405105   0.41176297    6976.1007    7587.8831    14563.984    18291.481 
  564800          624   0.50347208   0.29481426    6951.9064    7732.5759    14684.482    18291.481 
  564900        624.5    0.5008141   0.36036767     6990.534    7691.7533    14682.287    18291.481 
  565000          625   0.50242262   0.38902938    6936.7082    7716.4579    14653.166    18291.481 
  565100        625.5   0.50923681   0.31762514    6898.6605    7821.1135    14719.774    18291.481 
  565200          626   0.50171275   0.30646308     6923.658    7705.5552    14629.213    18291.481 
  565300        626.5    0.5030125   0.28355681    6935.5258    7725.5174    14661.043    18291.481 
  565400          627   0.50717148   0.38696285    6821.8987    7789.3932    14611.292    18291.481 
  565500        627.5    0.5044173    0.3807147    6897.5933    7747.0932    14644.686    18291.481 
  565600          628   0.50239326   0.29752195     6938.097    7716.0069    14654.104    18291.481 
  565700        628.5   0.50082008   0.26583677    6834.7696    7691.8451    14526.615    18291.481 
  565800          629   0.49840974   0.32358238    6912.1153    7654.8259    14566.941    18291.481 
  565900        629.5   0.50460647    0.3933397    6850.6163    7749.9985    14600.615    18291.481 
  566000          630   0.50540475   0.40563871    6878.8334    7762.2588    14641.092    18291.481 
  566100        630.5   0.49810398   0.36680039    6837.4512    7650.1299    14487.581    18291.481 
  566200          631   0.49856094   0.30432409    6807.4814    7657.1482     14464.63    18291.481 
  566300        631.5   0.49957237   0.28018926    6849.2341    7672.6822    14521.916    18291.481 
  566400          632   0.49470018   0.29924466    6956.5022    7597.8527    14554.355    18291.481 
  566500        632.5   0.49587182   0.36022804     6846.188    7615.8473    14462.035    18291.481 
  566600          633   0.50029965   0.41854814    6811.0744    7683.8522    14494.927    18291.481 
  566700        633.5   0.49819566   0.39150301    6806.6678    7651.5381    14458.206    18291.481 
  566800          634   0.49756715   0.39701199    6747.2217     7641.885    14389.107    18291.481 
  566900        634.5   0.49850942   0.34404187    6695.4285    7656.3569    14351.785    18291.481 
  567000          635   0.48805955   0.28230296    6862.2568    7495.8627     14358.12    18291.481 
  567100        635.5   0.49773701   0.31050673    6781.2736    7644.4939    14425.767    18291.481 
  567200          636   0.49544054    0.3019981    6865.8525    7609.2236    14475.076    18291.481 
  567300        636.5   0.49676274   0.38183985    6858.0255    7629.5306    14487.556    18291.481 
  567400          637   0.50145457   0.36422668    6889.0041      7701.59    14590.594    18291.481 
  567500        637.5   0.50624658   0.36098578    6862.7331    7775.1882    14637.921    18291.481 
  567600          638   0.50416852   0.31605096    6962.8784    7743.2722    14706.151    18291.481 
  567700        638.5   0.50357553   0.32557121    6938.1068    7734.1648    14672.272    18291.481 
  567800          639   0.50073482   0.40083232    6968.3339    7690.5357     14658.87    18291.481 
  567900        639.5   0.50633615   0.33416378    6908.0504    7776.5638    14684.614    18291.481 
  568000          640    0.4982032   0.33117397    7020.8134    7651.6538    14672.467    18291.481 
  568100        640.5   0.50059676   0.34988514    6931.2779    7688.4154    14619.693    18291.481 
  568200          641   0.49593598   0.32966273    6854.8644    7616.8328    14471.697    18291.481 
  568300        641.5   0.50092773   0.35355128    6735.6848    7693.4985    14429.183    18291.481 
  568400          642   0.50260702   0.28677125    6829.5718    7719.2899    14548.862    18291.481 
  568500        642.5   0.49675623   0.34434466    6854.8966    7629.4306    14484.327    18291.481 
  568600          643   0.49742533   0.40339973    6883.0344    7639.7069    14522.741    18291.481 
  568700        643.5   0.49934099   0.41810478    6827.0825    7669.1286    14496.211    18291.481 
  568800          644   0.49241657   0.32701947    6844.1953    7562.7799    14406.975    18291.481 
  568900        644.5   0.50108911   0.28370619    6750.1758    7695.9771    14446.153    18291.481 
  569000          645   0.49664762   0.30626521    6875.9042    7627.7625    14503.667    18291.481 
  569100        645.5    0.4969826   0.30463657    6907.2389    7632.9073    14540.146    18291.481 
  569200          646   0.50159497   0.27727059    6861.3558    7703.7464    14565.102    18291.481 
  569300        646.5   0.49505632   0.35696938    6967.5758    7603.3225    14570.898    18291.481 
  569400          647   0.49478972   0.27593976    6896.6248    7599.2279    14495.853    18291.481 
  569500        647.5   0.49882347   0.31074713    6830.9415    7661.1802    14492.122    18291.481 
  569600          648    0.5040984   0.38936437    6825.5355    7742.1953    14567.731    18291.481 
  569700        648.5   0.50583724    0.3251913    6861.1496    7768.9013    14630.051    18291.481 
  569800          649   0.50393651   0.37188495    6870.2713    7739.7089     14609.98    18291.481 
  569900        649.5   0.49330018    0.3397012    6870.2238    7576.3508    14446.575    18291.481 
  570000          650   0.49527163   0.32601244    6814.1733    7606.6293    14420.803    18291.481 
Loop time of 71.1148 on 1 procs for 30000 steps with 10240 atoms

Performance: 182240.647 tau/day, 421.853 timesteps/s
98.7% CPU use with 1 MPI tasks x 1 OpenMP threads

MPI task timing breakdown:
Section |  min time  |  avg time  |  max time  |%varavg| %total
---------------------------------------------------------------
Pair    | 8.2934     | 8.2934     | 8.2934     |   0.0 | 11.66
Bond    | 19.474     | 19.474     | 19.474     |   0.0 | 27.38
Neigh   | 15.358     | 15.358     | 15.358     |   0.0 | 21.60
Comm    | 4.2103     | 4.2103     | 4.2103     |   0.0 |  5.92
Output  | 1.0685     | 1.0685     | 1.0685     |   0.0 |  1.50
Modify  | 21.275     | 21.275     | 21.275     |   0.0 | 29.92
Other   |            | 1.436      |            |       |  2.02

Nlocal:    10240 ave 10240 max 10240 min
Histogram: 1 0 0 0 0 0 0 0 0 0
Nghost:    5492 ave 5492 max 5492 min
Histogram: 1 0 0 0 0 0 0 0 0 0
Neighs:    22746 ave 22746 max 22746 min
Histogram: 1 0 0 0 0 0 0 0 0 0

Total # of neighbors = 22746
Ave neighs/atom = 2.22129
Ave special neighs/atom = 4.8
Neighbor list builds = 2636
Dangerous builds = 391
write_restart restart.time*

#This section  of codes allows looping over the list of T values
clear
OMP_NUM_THREADS environment is not set. Defaulting to 1 thread. (../comm.cpp:94)
  using 1 OpenMP thread(s) per MPI task
next mix_steps
jump in.run_loop loop  #jumps back to loop label


Total wall time: 0:26:15
