ITEM: TIMESTEP
0
ITEM: NUMBER OF ATOMS
900
ITEM: BOX BOUNDS pp pp pp
0.0000000000000000e+00 3.0000000000000000e+02
0.0000000000000000e+00 3.0000000000000000e+02
-5.0000000000000000e+00 5.0000000000000000e+00
ITEM: ATOMS id type xs ys zs
1 1 0 0 0.5
2 1 0.0333333 0 0.5
3 1 0.0666667 0 0.5
4 1 0.1 0 0.5
5 1 0.133333 0 0.5
6 1 0.166667 0 0.5
7 1 0.2 0 0.5
8 1 0.233333 0 0.5
9 1 0.266667 0 0.5
10 1 0.3 0 0.5
11 1 0.333333 0 0.5
12 1 0.366667 0 0.5
13 1 0.4 0 0.5
14 1 0.433333 0 0.5
15 1 0.466667 0 0.5
16 1 0.5 0 0.5
17 1 0.533333 0 0.5
18 1 0.566667 0 0.5
19 1 0.6 0 0.5
20 1 0.633333 0 0.5
21 1 0.666667 0 0.5
22 1 0.7 0 0.5
23 1 0.733333 0 0.5
24 1 0.766667 0 0.5
25 1 0.8 0 0.5
26 1 0.833333 0 0.5
27 1 0.866667 0 0.5
28 1 0.9 0 0.5
29 1 0.933333 0 0.5
30 1 0.966667 0 0.5
31 1 0 0.0333333 0.5
32 1 0.0333333 0.0333333 0.5
33 1 0.0666667 0.0333333 0.5
34 1 0.1 0.0333333 0.5
35 1 0.133333 0.0333333 0.5
36 1 0.166667 0.0333333 0.5
37 1 0.2 0.0333333 0.5
38 1 0.233333 0.0333333 0.5
39 1 0.266667 0.0333333 0.5
40 1 0.3 0.0333333 0.5
41 1 0.333333 0.0333333 0.5
42 1 0.366667 0.0333333 0.5
43 1 0.4 0.0333333 0.5
44 1 0.433333 0.0333333 0.5
45 1 0.466667 0.0333333 0.5
46 1 0.5 0.0333333 0.5
47 1 0.533333 0.0333333 0.5
48 1 0.566667 0.0333333 0.5
49 1 0.6 0.0333333 0.5
50 1 0.633333 0.0333333 0.5
51 1 0.666667 0.0333333 0.5
52 1 0.7 0.0333333 0.5
53 1 0.733333 0.0333333 0.5
54 1 0.766667 0.0333333 0.5
55 1 0.8 0.0333333 0.5
56 1 0.833333 0.0333333 0.5
57 1 0.866667 0.0333333 0.5
58 1 0.9 0.0333333 0.5
59 1 0.933333 0.0333333 0.5
60 1 0.966667 0.0333333 0.5
61 1 0 0.0666667 0.5
62 1 0.0333333 0.0666667 0.5
63 1 0.0666667 0.0666667 0.5
64 1 0.1 0.0666667 0.5
65 1 0.133333 0.0666667 0.5
66 1 0.166667 0.0666667 0.5
67 1 0.2 0.0666667 0.5
68 1 0.233333 0.0666667 0.5
69 1 0.266667 0.0666667 0.5
70 1 0.3 0.0666667 0.5
71 1 0.333333 0.0666667 0.5
72 1 0.366667 0.0666667 0.5
73 1 0.4 0.0666667 0.5
74 1 0.433333 0.0666667 0.5
75 1 0.466667 0.0666667 0.5
76 1 0.5 0.0666667 0.5
77 1 0.533333 0.0666667 0.5
78 1 0.566667 0.0666667 0.5
79 1 0.6 0.0666667 0.5
80 1 0.633333 0.0666667 0.5
81 1 0.666667 0.0666667 0.5
82 1 0.7 0.0666667 0.5
83 1 0.733333 0.0666667 0.5
84 1 0.766667 0.0666667 0.5
85 1 0.8 0.0666667 0.5
86 1 0.833333 0.0666667 0.5
87 1 0.866667 0.0666667 0.5
88 1 0.9 0.0666667 0.5
89 1 0.933333 0.0666667 0.5
90 1 0.966667 0.0666667 0.5
91 1 0 0.1 0.5
92 1 0.0333333 0.1 0.5
93 1 0.0666667 0.1 0.5
94 1 0.1 0.1 0.5
95 1 0.133333 0.1 0.5
96 1 0.166667 0.1 0.5
97 1 0.2 0.1 0.5
98 1 0.233333 0.1 0.5
99 1 0.266667 0.1 0.5
100 1 0.3 0.1 0.5
101 1 0.333333 0.1 0.5
102 1 0.366667 0.1 0.5
103 1 0.4 0.1 0.5
104 1 0.433333 0.1 0.5
105 1 0.466667 0.1 0.5
106 1 0.5 0.1 0.5
107 1 0.533333 0.1 0.5
108 1 0.566667 0.1 0.5
109 1 0.6 0.1 0.5
110 1 0.633333 0.1 0.5
111 1 0.666667 0.1 0.5
112 1 0.7 0.1 0.5
113 1 0.733333 0.1 0.5
114 1 0.766667 0.1 0.5
115 1 0.8 0.1 0.5
116 1 0.833333 0.1 0.5
117 1 0.866667 0.1 0.5
118 1 0.9 0.1 0.5
119 1 0.933333 0.1 0.5
120 1 0.966667 0.1 0.5
121 1 0 0.133333 0.5
122 1 0.0333333 0.133333 0.5
123 1 0.0666667 0.133333 0.5
124 1 0.1 0.133333 0.5
125 1 0.133333 0.133333 0.5
126 1 0.166667 0.133333 0.5
127 1 0.2 0.133333 0.5
128 1 0.233333 0.133333 0.5
129 1 0.266667 0.133333 0.5
130 1 0.3 0.133333 0.5
131 1 0.333333 0.133333 0.5
132 1 0.366667 0.133333 0.5
133 1 0.4 0.133333 0.5
134 1 0.433333 0.133333 0.5
135 1 0.466667 0.133333 0.5
136 1 0.5 0.133333 0.5
137 1 0.533333 0.133333 0.5
138 1 0.566667 0.133333 0.5
139 1 0.6 0.133333 0.5
140 1 0.633333 0.133333 0.5
141 1 0.666667 0.133333 0.5
142 1 0.7 0.133333 0.5
143 1 0.733333 0.133333 0.5
144 1 0.766667 0.133333 0.5
145 1 0.8 0.133333 0.5
146 1 0.833333 0.133333 0.5
147 1 0.866667 0.133333 0.5
148 1 0.9 0.133333 0.5
149 1 0.933333 0.133333 0.5
150 1 0.966667 0.133333 0.5
151 1 0 0.166667 0.5
152 1 0.0333333 0.166667 0.5
153 1 0.0666667 0.166667 0.5
154 1 0.1 0.166667 0.5
155 1 0.133333 0.166667 0.5
156 1 0.166667 0.166667 0.5
157 1 0.2 0.166667 0.5
158 1 0.233333 0.166667 0.5
159 1 0.266667 0.166667 0.5
160 1 0.3 0.166667 0.5
161 1 0.333333 0.166667 0.5
162 1 0.366667 0.166667 0.5
163 1 0.4 0.166667 0.5
164 1 0.433333 0.166667 0.5
165 1 0.466667 0.166667 0.5
166 1 0.5 0.166667 0.5
167 1 0.533333 0.166667 0.5
168 1 0.566667 0.166667 0.5
169 1 0.6 0.166667 0.5
170 1 0.633333 0.166667 0.5
171 1 0.666667 0.166667 0.5
172 1 0.7 0.166667 0.5
173 1 0.733333 0.166667 0.5
174 1 0.766667 0.166667 0.5
175 1 0.8 0.166667 0.5
176 1 0.833333 0.166667 0.5
177 1 0.866667 0.166667 0.5
178 1 0.9 0.166667 0.5
179 1 0.933333 0.166667 0.5
180 1 0.966667 0.166667 0.5
181 1 0 0.2 0.5
182 1 0.0333333 0.2 0.5
183 1 0.0666667 0.2 0.5
184 1 0.1 0.2 0.5
185 1 0.133333 0.2 0.5
186 1 0.166667 0.2 0.5
187 1 0.2 0.2 0.5
188 1 0.233333 0.2 0.5
189 1 0.266667 0.2 0.5
190 1 0.3 0.2 0.5
191 1 0.333333 0.2 0.5
192 1 0.366667 0.2 0.5
193 1 0.4 0.2 0.5
194 1 0.433333 0.2 0.5
195 1 0.466667 0.2 0.5
196 1 0.5 0.2 0.5
197 1 0.533333 0.2 0.5
198 1 0.566667 0.2 0.5
199 1 0.6 0.2 0.5
200 1 0.633333 0.2 0.5
201 1 0.666667 0.2 0.5
202 1 0.7 0.2 0.5
203 1 0.733333 0.2 0.5
204 1 0.766667 0.2 0.5
205 1 0.8 0.2 0.5
206 1 0.833333 0.2 0.5
207 1 0.866667 0.2 0.5
208 1 0.9 0.2 0.5
209 1 0.933333 0.2 0.5
210 1 0.966667 0.2 0.5
211 1 0 0.233333 0.5
212 1 0.0333333 0.233333 0.5
213 1 0.0666667 0.233333 0.5
214 1 0.1 0.233333 0.5
215 1 0.133333 0.233333 0.5
216 1 0.166667 0.233333 0.5
217 1 0.2 0.233333 0.5
218 1 0.233333 0.233333 0.5
219 1 0.266667 0.233333 0.5
220 1 0.3 0.233333 0.5
221 1 0.333333 0.233333 0.5
222 1 0.366667 0.233333 0.5
223 1 0.4 0.233333 0.5
224 1 0.433333 0.233333 0.5
225 1 0.466667 0.233333 0.5
226 1 0.5 0.233333 0.5
227 1 0.533333 0.233333 0.5
228 1 0.566667 0.233333 0.5
229 1 0.6 0.233333 0.5
230 1 0.633333 0.233333 0.5
231 1 0.666667 0.233333 0.5
232 1 0.7 0.233333 0.5
233 1 0.733333 0.233333 0.5
234 1 0.766667 0.233333 0.5
235 1 0.8 0.233333 0.5
236 1 0.833333 0.233333 0.5
237 1 0.866667 0.233333 0.5
238 1 0.9 0.233333 0.5
239 1 0.933333 0.233333 0.5
240 1 0.966667 0.233333 0.5
241 1 0 0.266667 0.5
242 1 0.0333333 0.266667 0.5
243 1 0.0666667 0.266667 0.5
244 1 0.1 0.266667 0.5
245 1 0.133333 0.266667 0.5
246 1 0.166667 0.266667 0.5
247 1 0.2 0.266667 0.5
248 1 0.233333 0.266667 0.5
249 1 0.266667 0.266667 0.5
250 1 0.3 0.266667 0.5
251 1 0.333333 0.266667 0.5
252 1 0.366667 0.266667 0.5
253 1 0.4 0.266667 0.5
254 1 0.433333 0.266667 0.5
255 1 0.466667 0.266667 0.5
256 1 0.5 0.266667 0.5
257 1 0.533333 0.266667 0.5
258 1 0.566667 0.266667 0.5
259 1 0.6 0.266667 0.5
260 1 0.633333 0.266667 0.5
261 1 0.666667 0.266667 0.5
262 1 0.7 0.266667 0.5
263 1 0.733333 0.266667 0.5
264 1 0.766667 0.266667 0.5
265 1 0.8 0.266667 0.5
266 1 0.833333 0.266667 0.5
267 1 0.866667 0.266667 0.5
268 1 0.9 0.266667 0.5
269 1 0.933333 0.266667 0.5
270 1 0.966667 0.266667 0.5
271 1 0 0.3 0.5
272 1 0.0333333 0.3 0.5
273 1 0.0666667 0.3 0.5
274 1 0.1 0.3 0.5
275 1 0.133333 0.3 0.5
276 1 0.166667 0.3 0.5
277 1 0.2 0.3 0.5
278 1 0.233333 0.3 0.5
279 1 0.266667 0.3 0.5
280 1 0.3 0.3 0.5
281 1 0.333333 0.3 0.5
282 1 0.366667 0.3 0.5
283 1 0.4 0.3 0.5
284 1 0.433333 0.3 0.5
285 1 0.466667 0.3 0.5
286 1 0.5 0.3 0.5
287 1 0.533333 0.3 0.5
288 1 0.566667 0.3 0.5
289 1 0.6 0.3 0.5
290 1 0.633333 0.3 0.5
291 1 0.666667 0.3 0.5
292 1 0.7 0.3 0.5
293 1 0.733333 0.3 0.5
294 1 0.766667 0.3 0.5
295 1 0.8 0.3 0.5
296 1 0.833333 0.3 0.5
297 1 0.866667 0.3 0.5
298 1 0.9 0.3 0.5
299 1 0.933333 0.3 0.5
300 1 0.966667 0.3 0.5
301 1 0 0.333333 0.5
302 1 0.0333333 0.333333 0.5
303 1 0.0666667 0.333333 0.5
304 1 0.1 0.333333 0.5
305 1 0.133333 0.333333 0.5
306 1 0.166667 0.333333 0.5
307 1 0.2 0.333333 0.5
308 1 0.233333 0.333333 0.5
309 1 0.266667 0.333333 0.5
310 1 0.3 0.333333 0.5
311 1 0.333333 0.333333 0.5
312 1 0.366667 0.333333 0.5
313 1 0.4 0.333333 0.5
314 1 0.433333 0.333333 0.5
315 1 0.466667 0.333333 0.5
316 1 0.5 0.333333 0.5
317 1 0.533333 0.333333 0.5
318 1 0.566667 0.333333 0.5
319 1 0.6 0.333333 0.5
320 1 0.633333 0.333333 0.5
321 1 0.666667 0.333333 0.5
322 1 0.7 0.333333 0.5
323 1 0.733333 0.333333 0.5
324 1 0.766667 0.333333 0.5
325 1 0.8 0.333333 0.5
326 1 0.833333 0.333333 0.5
327 1 0.866667 0.333333 0.5
328 1 0.9 0.333333 0.5
329 1 0.933333 0.333333 0.5
330 1 0.966667 0.333333 0.5
331 1 0 0.366667 0.5
332 1 0.0333333 0.366667 0.5
333 1 0.0666667 0.366667 0.5
334 1 0.1 0.366667 0.5
335 1 0.133333 0.366667 0.5
336 1 0.166667 0.366667 0.5
337 1 0.2 0.366667 0.5
338 1 0.233333 0.366667 0.5
339 1 0.266667 0.366667 0.5
340 1 0.3 0.366667 0.5
341 1 0.333333 0.366667 0.5
342 1 0.366667 0.366667 0.5
343 1 0.4 0.366667 0.5
344 1 0.433333 0.366667 0.5
345 1 0.466667 0.366667 0.5
346 1 0.5 0.366667 0.5
347 1 0.533333 0.366667 0.5
348 1 0.566667 0.366667 0.5
349 1 0.6 0.366667 0.5
350 1 0.633333 0.366667 0.5
351 1 0.666667 0.366667 0.5
352 1 0.7 0.366667 0.5
353 1 0.733333 0.366667 0.5
354 1 0.766667 0.366667 0.5
355 1 0.8 0.366667 0.5
356 1 0.833333 0.366667 0.5
357 1 0.866667 0.366667 0.5
358 1 0.9 0.366667 0.5
359 1 0.933333 0.366667 0.5
360 1 0.966667 0.366667 0.5
361 1 0 0.4 0.5
362 1 0.0333333 0.4 0.5
363 1 0.0666667 0.4 0.5
364 1 0.1 0.4 0.5
365 1 0.133333 0.4 0.5
366 1 0.166667 0.4 0.5
367 1 0.2 0.4 0.5
368 1 0.233333 0.4 0.5
369 1 0.266667 0.4 0.5
370 1 0.3 0.4 0.5
371 1 0.333333 0.4 0.5
372 1 0.366667 0.4 0.5
373 1 0.4 0.4 0.5
374 1 0.433333 0.4 0.5
375 1 0.466667 0.4 0.5
376 1 0.5 0.4 0.5
377 1 0.533333 0.4 0.5
378 1 0.566667 0.4 0.5
379 1 0.6 0.4 0.5
380 1 0.633333 0.4 0.5
381 1 0.666667 0.4 0.5
382 1 0.7 0.4 0.5
383 1 0.733333 0.4 0.5
384 1 0.766667 0.4 0.5
385 1 0.8 0.4 0.5
386 1 0.833333 0.4 0.5
387 1 0.866667 0.4 0.5
388 1 0.9 0.4 0.5
389 1 0.933333 0.4 0.5
390 1 0.966667 0.4 0.5
391 1 0 0.433333 0.5
392 1 0.0333333 0.433333 0.5
393 1 0.0666667 0.433333 0.5
394 1 0.1 0.433333 0.5
395 1 0.133333 0.433333 0.5
396 1 0.166667 0.433333 0.5
397 1 0.2 0.433333 0.5
398 1 0.233333 0.433333 0.5
399 1 0.266667 0.433333 0.5
400 1 0.3 0.433333 0.5
401 1 0.333333 0.433333 0.5
402 1 0.366667 0.433333 0.5
403 1 0.4 0.433333 0.5
404 1 0.433333 0.433333 0.5
405 1 0.466667 0.433333 0.5
406 1 0.5 0.433333 0.5
407 1 0.533333 0.433333 0.5
408 1 0.566667 0.433333 0.5
409 1 0.6 0.433333 0.5
410 1 0.633333 0.433333 0.5
411 1 0.666667 0.433333 0.5
412 1 0.7 0.433333 0.5
413 1 0.733333 0.433333 0.5
414 1 0.766667 0.433333 0.5
415 1 0.8 0.433333 0.5
416 1 0.833333 0.433333 0.5
417 1 0.866667 0.433333 0.5
418 1 0.9 0.433333 0.5
419 1 0.933333 0.433333 0.5
420 1 0.966667 0.433333 0.5
421 1 0 0.466667 0.5
422 1 0.0333333 0.466667 0.5
423 1 0.0666667 0.466667 0.5
424 1 0.1 0.466667 0.5
425 1 0.133333 0.466667 0.5
426 1 0.166667 0.466667 0.5
427 1 0.2 0.466667 0.5
428 1 0.233333 0.466667 0.5
429 1 0.266667 0.466667 0.5
430 1 0.3 0.466667 0.5
431 1 0.333333 0.466667 0.5
432 1 0.366667 0.466667 0.5
433 1 0.4 0.466667 0.5
434 1 0.433333 0.466667 0.5
435 1 0.466667 0.466667 0.5
436 1 0.5 0.466667 0.5
437 1 0.533333 0.466667 0.5
438 1 0.566667 0.466667 0.5
439 1 0.6 0.466667 0.5
440 1 0.633333 0.466667 0.5
441 1 0.666667 0.466667 0.5
442 1 0.7 0.466667 0.5
443 1 0.733333 0.466667 0.5
444 1 0.766667 0.466667 0.5
445 1 0.8 0.466667 0.5
446 1 0.833333 0.466667 0.5
447 1 0.866667 0.466667 0.5
448 1 0.9 0.466667 0.5
449 1 0.933333 0.466667 0.5
450 1 0.966667 0.466667 0.5
451 1 0 0.5 0.5
452 1 0.0333333 0.5 0.5
453 1 0.0666667 0.5 0.5
454 1 0.1 0.5 0.5
455 1 0.133333 0.5 0.5
456 1 0.166667 0.5 0.5
457 1 0.2 0.5 0.5
458 1 0.233333 0.5 0.5
459 1 0.266667 0.5 0.5
460 1 0.3 0.5 0.5
461 1 0.333333 0.5 0.5
462 1 0.366667 0.5 0.5
463 1 0.4 0.5 0.5
464 1 0.433333 0.5 0.5
465 1 0.466667 0.5 0.5
466 1 0.5 0.5 0.5
467 1 0.533333 0.5 0.5
468 1 0.566667 0.5 0.5
469 1 0.6 0.5 0.5
470 1 0.633333 0.5 0.5
471 1 0.666667 0.5 0.5
472 1 0.7 0.5 0.5
473 1 0.733333 0.5 0.5
474 1 0.766667 0.5 0.5
475 1 0.8 0.5 0.5
476 1 0.833333 0.5 0.5
477 1 0.866667 0.5 0.5
478 1 0.9 0.5 0.5
479 1 0.933333 0.5 0.5
480 1 0.966667 0.5 0.5
481 1 0 0.533333 0.5
482 1 0.0333333 0.533333 0.5
483 1 0.0666667 0.533333 0.5
484 1 0.1 0.533333 0.5
485 1 0.133333 0.533333 0.5
486 1 0.166667 0.533333 0.5
487 1 0.2 0.533333 0.5
488 1 0.233333 0.533333 0.5
489 1 0.266667 0.533333 0.5
490 1 0.3 0.533333 0.5
491 1 0.333333 0.533333 0.5
492 1 0.366667 0.533333 0.5
493 1 0.4 0.533333 0.5
494 1 0.433333 0.533333 0.5
495 1 0.466667 0.533333 0.5
496 1 0.5 0.533333 0.5
497 1 0.533333 0.533333 0.5
498 1 0.566667 0.533333 0.5
499 1 0.6 0.533333 0.5
500 1 0.633333 0.533333 0.5
501 1 0.666667 0.533333 0.5
502 1 0.7 0.533333 0.5
503 1 0.733333 0.533333 0.5
504 1 0.766667 0.533333 0.5
505 1 0.8 0.533333 0.5
506 1 0.833333 0.533333 0.5
507 1 0.866667 0.533333 0.5
508 1 0.9 0.533333 0.5
509 1 0.933333 0.533333 0.5
510 1 0.966667 0.533333 0.5
511 1 0 0.566667 0.5
512 1 0.0333333 0.566667 0.5
513 1 0.0666667 0.566667 0.5
514 1 0.1 0.566667 0.5
515 1 0.133333 0.566667 0.5
516 1 0.166667 0.566667 0.5
517 1 0.2 0.566667 0.5
518 1 0.233333 0.566667 0.5
519 1 0.266667 0.566667 0.5
520 1 0.3 0.566667 0.5
521 1 0.333333 0.566667 0.5
522 1 0.366667 0.566667 0.5
523 1 0.4 0.566667 0.5
524 1 0.433333 0.566667 0.5
525 1 0.466667 0.566667 0.5
526 1 0.5 0.566667 0.5
527 1 0.533333 0.566667 0.5
528 1 0.566667 0.566667 0.5
529 1 0.6 0.566667 0.5
530 1 0.633333 0.566667 0.5
531 1 0.666667 0.566667 0.5
532 1 0.7 0.566667 0.5
533 1 0.733333 0.566667 0.5
534 1 0.766667 0.566667 0.5
535 1 0.8 0.566667 0.5
536 1 0.833333 0.566667 0.5
537 1 0.866667 0.566667 0.5
538 1 0.9 0.566667 0.5
539 1 0.933333 0.566667 0.5
540 1 0.966667 0.566667 0.5
541 1 0 0.6 0.5
542 1 0.0333333 0.6 0.5
543 1 0.0666667 0.6 0.5
544 1 0.1 0.6 0.5
545 1 0.133333 0.6 0.5
546 1 0.166667 0.6 0.5
547 1 0.2 0.6 0.5
548 1 0.233333 0.6 0.5
549 1 0.266667 0.6 0.5
550 1 0.3 0.6 0.5
551 1 0.333333 0.6 0.5
552 1 0.366667 0.6 0.5
553 1 0.4 0.6 0.5
554 1 0.433333 0.6 0.5
555 1 0.466667 0.6 0.5
556 1 0.5 0.6 0.5
557 1 0.533333 0.6 0.5
558 1 0.566667 0.6 0.5
559 1 0.6 0.6 0.5
560 1 0.633333 0.6 0.5
561 1 0.666667 0.6 0.5
562 1 0.7 0.6 0.5
563 1 0.733333 0.6 0.5
564 1 0.766667 0.6 0.5
565 1 0.8 0.6 0.5
566 1 0.833333 0.6 0.5
567 1 0.866667 0.6 0.5
568 1 0.9 0.6 0.5
569 1 0.933333 0.6 0.5
570 1 0.966667 0.6 0.5
571 1 0 0.633333 0.5
572 1 0.0333333 0.633333 0.5
573 1 0.0666667 0.633333 0.5
574 1 0.1 0.633333 0.5
575 1 0.133333 0.633333 0.5
576 1 0.166667 0.633333 0.5
577 1 0.2 0.633333 0.5
578 1 0.233333 0.633333 0.5
579 1 0.266667 0.633333 0.5
580 1 0.3 0.633333 0.5
581 1 0.333333 0.633333 0.5
582 1 0.366667 0.633333 0.5
583 1 0.4 0.633333 0.5
584 1 0.433333 0.633333 0.5
585 1 0.466667 0.633333 0.5
586 1 0.5 0.633333 0.5
587 1 0.533333 0.633333 0.5
588 1 0.566667 0.633333 0.5
589 1 0.6 0.633333 0.5
590 1 0.633333 0.633333 0.5
591 1 0.666667 0.633333 0.5
592 1 0.7 0.633333 0.5
593 1 0.733333 0.633333 0.5
594 1 0.766667 0.633333 0.5
595 1 0.8 0.633333 0.5
596 1 0.833333 0.633333 0.5
597 1 0.866667 0.633333 0.5
598 1 0.9 0.633333 0.5
599 1 0.933333 0.633333 0.5
600 1 0.966667 0.633333 0.5
601 1 0 0.666667 0.5
602 1 0.0333333 0.666667 0.5
603 1 0.0666667 0.666667 0.5
604 1 0.1 0.666667 0.5
605 1 0.133333 0.666667 0.5
606 1 0.166667 0.666667 0.5
607 1 0.2 0.666667 0.5
608 1 0.233333 0.666667 0.5
609 1 0.266667 0.666667 0.5
610 1 0.3 0.666667 0.5
611 1 0.333333 0.666667 0.5
612 1 0.366667 0.666667 0.5
613 1 0.4 0.666667 0.5
614 1 0.433333 0.666667 0.5
615 1 0.466667 0.666667 0.5
616 1 0.5 0.666667 0.5
617 1 0.533333 0.666667 0.5
618 1 0.566667 0.666667 0.5
619 1 0.6 0.666667 0.5
620 1 0.633333 0.666667 0.5
621 1 0.666667 0.666667 0.5
622 1 0.7 0.666667 0.5
623 1 0.733333 0.666667 0.5
624 1 0.766667 0.666667 0.5
625 1 0.8 0.666667 0.5
626 1 0.833333 0.666667 0.5
627 1 0.866667 0.666667 0.5
628 1 0.9 0.666667 0.5
629 1 0.933333 0.666667 0.5
630 1 0.966667 0.666667 0.5
631 1 0 0.7 0.5
632 1 0.0333333 0.7 0.5
633 1 0.0666667 0.7 0.5
634 1 0.1 0.7 0.5
635 1 0.133333 0.7 0.5
636 1 0.166667 0.7 0.5
637 1 0.2 0.7 0.5
638 1 0.233333 0.7 0.5
639 1 0.266667 0.7 0.5
640 1 0.3 0.7 0.5
641 1 0.333333 0.7 0.5
642 1 0.366667 0.7 0.5
643 1 0.4 0.7 0.5
644 1 0.433333 0.7 0.5
645 1 0.466667 0.7 0.5
646 1 0.5 0.7 0.5
647 1 0.533333 0.7 0.5
648 1 0.566667 0.7 0.5
649 1 0.6 0.7 0.5
650 1 0.633333 0.7 0.5
651 1 0.666667 0.7 0.5
652 1 0.7 0.7 0.5
653 1 0.733333 0.7 0.5
654 1 0.766667 0.7 0.5
655 1 0.8 0.7 0.5
656 1 0.833333 0.7 0.5
657 1 0.866667 0.7 0.5
658 1 0.9 0.7 0.5
659 1 0.933333 0.7 0.5
660 1 0.966667 0.7 0.5
661 1 0 0.733333 0.5
662 1 0.0333333 0.733333 0.5
663 1 0.0666667 0.733333 0.5
664 1 0.1 0.733333 0.5
665 1 0.133333 0.733333 0.5
666 1 0.166667 0.733333 0.5
667 1 0.2 0.733333 0.5
668 1 0.233333 0.733333 0.5
669 1 0.266667 0.733333 0.5
670 1 0.3 0.733333 0.5
671 1 0.333333 0.733333 0.5
672 1 0.366667 0.733333 0.5
673 1 0.4 0.733333 0.5
674 1 0.433333 0.733333 0.5
675 1 0.466667 0.733333 0.5
676 1 0.5 0.733333 0.5
677 1 0.533333 0.733333 0.5
678 1 0.566667 0.733333 0.5
679 1 0.6 0.733333 0.5
680 1 0.633333 0.733333 0.5
681 1 0.666667 0.733333 0.5
682 1 0.7 0.733333 0.5
683 1 0.733333 0.733333 0.5
684 1 0.766667 0.733333 0.5
685 1 0.8 0.733333 0.5
686 1 0.833333 0.733333 0.5
687 1 0.866667 0.733333 0.5
688 1 0.9 0.733333 0.5
689 1 0.933333 0.733333 0.5
690 1 0.966667 0.733333 0.5
691 1 0 0.766667 0.5
692 1 0.0333333 0.766667 0.5
693 1 0.0666667 0.766667 0.5
694 1 0.1 0.766667 0.5
695 1 0.133333 0.766667 0.5
696 1 0.166667 0.766667 0.5
697 1 0.2 0.766667 0.5
698 1 0.233333 0.766667 0.5
699 1 0.266667 0.766667 0.5
700 1 0.3 0.766667 0.5
701 1 0.333333 0.766667 0.5
702 1 0.366667 0.766667 0.5
703 1 0.4 0.766667 0.5
704 1 0.433333 0.766667 0.5
705 1 0.466667 0.766667 0.5
706 1 0.5 0.766667 0.5
707 1 0.533333 0.766667 0.5
708 1 0.566667 0.766667 0.5
709 1 0.6 0.766667 0.5
710 1 0.633333 0.766667 0.5
711 1 0.666667 0.766667 0.5
712 1 0.7 0.766667 0.5
713 1 0.733333 0.766667 0.5
714 1 0.766667 0.766667 0.5
715 1 0.8 0.766667 0.5
716 1 0.833333 0.766667 0.5
717 1 0.866667 0.766667 0.5
718 1 0.9 0.766667 0.5
719 1 0.933333 0.766667 0.5
720 1 0.966667 0.766667 0.5
721 1 0 0.8 0.5
722 1 0.0333333 0.8 0.5
723 1 0.0666667 0.8 0.5
724 1 0.1 0.8 0.5
725 1 0.133333 0.8 0.5
726 1 0.166667 0.8 0.5
727 1 0.2 0.8 0.5
728 1 0.233333 0.8 0.5
729 1 0.266667 0.8 0.5
730 1 0.3 0.8 0.5
731 1 0.333333 0.8 0.5
732 1 0.366667 0.8 0.5
733 1 0.4 0.8 0.5
734 1 0.433333 0.8 0.5
735 1 0.466667 0.8 0.5
736 1 0.5 0.8 0.5
737 1 0.533333 0.8 0.5
738 1 0.566667 0.8 0.5
739 1 0.6 0.8 0.5
740 1 0.633333 0.8 0.5
741 1 0.666667 0.8 0.5
742 1 0.7 0.8 0.5
743 1 0.733333 0.8 0.5
744 1 0.766667 0.8 0.5
745 1 0.8 0.8 0.5
746 1 0.833333 0.8 0.5
747 1 0.866667 0.8 0.5
748 1 0.9 0.8 0.5
749 1 0.933333 0.8 0.5
750 1 0.966667 0.8 0.5
751 1 0 0.833333 0.5
752 1 0.0333333 0.833333 0.5
753 1 0.0666667 0.833333 0.5
754 1 0.1 0.833333 0.5
755 1 0.133333 0.833333 0.5
756 1 0.166667 0.833333 0.5
757 1 0.2 0.833333 0.5
758 1 0.233333 0.833333 0.5
759 1 0.266667 0.833333 0.5
760 1 0.3 0.833333 0.5
761 1 0.333333 0.833333 0.5
762 1 0.366667 0.833333 0.5
763 1 0.4 0.833333 0.5
764 1 0.433333 0.833333 0.5
765 1 0.466667 0.833333 0.5
766 1 0.5 0.833333 0.5
767 1 0.533333 0.833333 0.5
768 1 0.566667 0.833333 0.5
769 1 0.6 0.833333 0.5
770 1 0.633333 0.833333 0.5
771 1 0.666667 0.833333 0.5
772 1 0.7 0.833333 0.5
773 1 0.733333 0.833333 0.5
774 1 0.766667 0.833333 0.5
775 1 0.8 0.833333 0.5
776 1 0.833333 0.833333 0.5
777 1 0.866667 0.833333 0.5
778 1 0.9 0.833333 0.5
779 1 0.933333 0.833333 0.5
780 1 0.966667 0.833333 0.5
781 1 0 0.866667 0.5
782 1 0.0333333 0.866667 0.5
783 1 0.0666667 0.866667 0.5
784 1 0.1 0.866667 0.5
785 1 0.133333 0.866667 0.5
786 1 0.166667 0.866667 0.5
787 1 0.2 0.866667 0.5
788 1 0.233333 0.866667 0.5
789 1 0.266667 0.866667 0.5
790 1 0.3 0.866667 0.5
791 1 0.333333 0.866667 0.5
792 1 0.366667 0.866667 0.5
793 1 0.4 0.866667 0.5
794 1 0.433333 0.866667 0.5
795 1 0.466667 0.866667 0.5
796 1 0.5 0.866667 0.5
797 1 0.533333 0.866667 0.5
798 1 0.566667 0.866667 0.5
799 1 0.6 0.866667 0.5
800 1 0.633333 0.866667 0.5
801 1 0.666667 0.866667 0.5
802 1 0.7 0.866667 0.5
803 1 0.733333 0.866667 0.5
804 1 0.766667 0.866667 0.5
805 1 0.8 0.866667 0.5
806 1 0.833333 0.866667 0.5
807 1 0.866667 0.866667 0.5
808 1 0.9 0.866667 0.5
809 1 0.933333 0.866667 0.5
810 1 0.966667 0.866667 0.5
811 1 0 0.9 0.5
812 1 0.0333333 0.9 0.5
813 1 0.0666667 0.9 0.5
814 1 0.1 0.9 0.5
815 1 0.133333 0.9 0.5
816 1 0.166667 0.9 0.5
817 1 0.2 0.9 0.5
818 1 0.233333 0.9 0.5
819 1 0.266667 0.9 0.5
820 1 0.3 0.9 0.5
821 1 0.333333 0.9 0.5
822 1 0.366667 0.9 0.5
823 1 0.4 0.9 0.5
824 1 0.433333 0.9 0.5
825 1 0.466667 0.9 0.5
826 1 0.5 0.9 0.5
827 1 0.533333 0.9 0.5
828 1 0.566667 0.9 0.5
829 1 0.6 0.9 0.5
830 1 0.633333 0.9 0.5
831 1 0.666667 0.9 0.5
832 1 0.7 0.9 0.5
833 1 0.733333 0.9 0.5
834 1 0.766667 0.9 0.5
835 1 0.8 0.9 0.5
836 1 0.833333 0.9 0.5
837 1 0.866667 0.9 0.5
838 1 0.9 0.9 0.5
839 1 0.933333 0.9 0.5
840 1 0.966667 0.9 0.5
841 1 0 0.933333 0.5
842 1 0.0333333 0.933333 0.5
843 1 0.0666667 0.933333 0.5
844 1 0.1 0.933333 0.5
845 1 0.133333 0.933333 0.5
846 1 0.166667 0.933333 0.5
847 1 0.2 0.933333 0.5
848 1 0.233333 0.933333 0.5
849 1 0.266667 0.933333 0.5
850 1 0.3 0.933333 0.5
851 1 0.333333 0.933333 0.5
852 1 0.366667 0.933333 0.5
853 1 0.4 0.933333 0.5
854 1 0.433333 0.933333 0.5
855 1 0.466667 0.933333 0.5
856 1 0.5 0.933333 0.5
857 1 0.533333 0.933333 0.5
858 1 0.566667 0.933333 0.5
859 1 0.6 0.933333 0.5
860 1 0.633333 0.933333 0.5
861 1 0.666667 0.933333 0.5
862 1 0.7 0.933333 0.5
863 1 0.733333 0.933333 0.5
864 1 0.766667 0.933333 0.5
865 1 0.8 0.933333 0.5
866 1 0.833333 0.933333 0.5
867 1 0.866667 0.933333 0.5
868 1 0.9 0.933333 0.5
869 1 0.933333 0.933333 0.5
870 1 0.966667 0.933333 0.5
871 1 0 0.966667 0.5
872 1 0.0333333 0.966667 0.5
873 1 0.0666667 0.966667 0.5
874 1 0.1 0.966667 0.5
875 1 0.133333 0.966667 0.5
876 1 0.166667 0.966667 0.5
877 1 0.2 0.966667 0.5
878 1 0.233333 0.966667 0.5
879 1 0.266667 0.966667 0.5
880 1 0.3 0.966667 0.5
881 1 0.333333 0.966667 0.5
882 1 0.366667 0.966667 0.5
883 1 0.4 0.966667 0.5
884 1 0.433333 0.966667 0.5
885 1 0.466667 0.966667 0.5
886 1 0.5 0.966667 0.5
887 1 0.533333 0.966667 0.5
888 1 0.566667 0.966667 0.5
889 1 0.6 0.966667 0.5
890 1 0.633333 0.966667 0.5
891 1 0.666667 0.966667 0.5
892 1 0.7 0.966667 0.5
893 1 0.733333 0.966667 0.5
894 1 0.766667 0.966667 0.5
895 1 0.8 0.966667 0.5
896 1 0.833333 0.966667 0.5
897 1 0.866667 0.966667 0.5
898 1 0.9 0.966667 0.5
899 1 0.933333 0.966667 0.5
900 1 0.966667 0.966667 0.5
ITEM: TIMESTEP
1000
ITEM: NUMBER OF ATOMS
900
ITEM: BOX BOUNDS pp pp pp
0.0000000000000000e+00 3.0000000000000000e+02
0.0000000000000000e+00 3.0000000000000000e+02
-5.0000000000000000e+00 5.0000000000000000e+00
ITEM: ATOMS id type xs ys zs
1 1 0.998046 0.988535 0.5
2 1 0.0410224 0.983936 0.5
3 1 0.0996476 0.0157633 0.5
4 1 0.133078 0.9706 0.5
5 1 0.127589 0.0188676 0.5
6 1 0.15848 0.969511 0.5
7 1 0.197204 0.984334 0.5
8 1 0.209679 0.983907 0.5
9 1 0.283988 0.00956731 0.5
10 1 0.298606 0.988574 0.5
11 1 0.347496 0.0105956 0.5
12 1 0.360972 0.977544 0.5
13 1 0.386105 0.982166 0.5
14 1 0.461752 0.991795 0.5
15 1 0.437004 0.0319091 0.5
16 1 0.482127 0.00660634 0.5
17 1 0.528624 0.0161958 0.5
18 1 0.590262 0.0226548 0.5
19 1 0.613547 0.973442 0.5
20 1 0.641061 0.00269134 0.5
21 1 0.671875 0.0294478 0.5
22 1 0.683358 0.000789652 0.5
23 1 0.759686 0.97388 0.5
24 1 0.756122 0.96864 0.5
25 1 0.819054 0.967695 0.5
26 1 0.864622 0.996594 0.5
27 1 0.897704 0.00117658 0.5
28 1 0.899592 0.965368 0.5
29 1 0.92231 0.0278568 0.5
30 1 0.937568 0.0281414 0.5
31 1 0.0332045 0.044766 0.5
32 1 0.0411393 0.0317005 0.5
33 1 0.0372479 0.0539746 0.5
34 1 0.0995412 0.0245795 0.5
35 1 0.116085 0.0140973 0.5
36 1 0.175032 0.0295722 0.5
37 1 0.175139 0.00618697 0.5
38 1 0.211382 0.998395 0.5
39 1 0.232991 0.0627378 0.5
40 1 0.284145 0.0313706 0.5
41 1 0.321009 0.0672135 0.5
42 1 0.362792 0.00952111 0.5
43 1 0.369771 0.0273509 0.5
44 1 0.416311 0.0493978 0.5
45 1 0.479203 0.0350018 0.5
46 1 0.512194 0.0613533 0.5
47 1 0.557634 0.0429862 0.5
48 1 0.560472 0.0359205 0.5
49 1 0.621641 0.0398746 0.5
50 1 0.631577 0.0641022 0.5
51 1 0.649082 0.0398614 0.5
52 1 0.67302 0.000149608 0.5
53 1 0.726259 0.0186159 0.5
54 1 0.79368 0.0288622 0.5
55 1 0.77216 0.0469035 0.5
56 1 0.809955 0.0468808 0.5
57 1 0.842891 0.0624068 0.5
58 1 0.901919 0.00319791 0.5
59 1 0.939392 0.0168306 0.5
60 1 0.989965 0.0223258 0.5
61 1 0.0251477 0.0515569 0.5
62 1 0.00834356 0.0403172 0.5
63 1 0.0537773 0.0821982 0.5
64 1 0.0944577 0.0902905 0.5
65 1 0.103707 0.0767329 0.5
66 1 0.151939 0.0504657 0.5
67 1 0.180104 0.077516 0.5
68 1 0.203291 0.0668332 0.5
69 1 0.283066 0.0729531 0.5
70 1 0.286748 0.0504585 0.5
71 1 0.353032 0.0963878 0.5
72 1 0.378916 0.0433549 0.5
73 1 0.384507 0.0829698 0.5
74 1 0.423737 0.094079 0.5
75 1 0.435589 0.0814845 0.5
76 1 0.467025 0.0999957 0.5
77 1 0.523702 0.0646144 0.5
78 1 0.557443 0.0484489 0.5
79 1 0.588812 0.0445197 0.5
80 1 0.668407 0.0357653 0.5
81 1 0.701431 0.0812726 0.5
82 1 0.724355 0.0444774 0.5
83 1 0.741318 0.0642724 0.5
84 1 0.758975 0.0526539 0.5
85 1 0.793478 0.0745224 0.5
86 1 0.831868 0.0527627 0.5
87 1 0.854257 0.0682958 0.5
88 1 0.891009 0.0963228 0.5
89 1 0.956401 0.0777365 0.5
90 1 0.998792 0.089986 0.5
91 1 0.977039 0.0759836 0.5
92 1 0.0514542 0.0972363 0.5
93 1 0.0707659 0.0931858 0.5
94 1 0.127109 0.0911776 0.5
95 1 0.128956 0.121032 0.5
96 1 0.158563 0.0736618 0.5
97 1 0.171912 0.111152 0.5
98 1 0.255896 0.116249 0.5
99 1 0.290667 0.0962516 0.5
100 1 0.285353 0.0969018 0.5
101 1 0.315417 0.0752326 0.5
102 1 0.381666 0.0951051 0.5
103 1 0.375145 0.108912 0.5
104 1 0.457592 0.105035 0.5
105 1 0.439311 0.117619 0.5
106 1 0.494043 0.118771 0.5
107 1 0.540014 0.127326 0.5
108 1 0.541752 0.0763085 0.5
109 1 0.601231 0.104117 0.5
110 1 0.653849 0.0790248 0.5
111 1 0.686421 0.0965647 0.5
112 1 0.708775 0.0838296 0.5
113 1 0.7686 0.0677655 0.5
114 1 0.75151 0.11579 0.5
115 1 0.783849 0.0729941 0.5
116 1 0.85451 0.0828016 0.5
117 1 0.859857 0.0883333 0.5
118 1 0.91182 0.104671 0.5
119 1 0.917689 0.086762 0.5
120 1 0.982656 0.0759854 0.5
121 1 0.989453 0.13371 0.5
122 1 0.0426177 0.103794 0.5
123 1 0.0498041 0.145612 0.5
124 1 0.0827871 0.158548 0.5
125 1 0.158016 0.107093 0.5
126 1 0.133653 0.141215 0.5
127 1 0.180621 0.12141 0.5
128 1 0.24602 0.10614 0.5
129 1 0.259639 0.116855 0.5
130 1 0.298072 0.136938 0.5
131 1 0.357765 0.149126 0.5
132 1 0.336791 0.131409 0.5
133 1 0.419376 0.1057 0.5
134 1 0.465518 0.14464 0.5
135 1 0.478181 0.156479 0.5
136 1 0.524568 0.134285 0.5
137 1 0.565023 0.125033 0.5
138 1 0.539957 0.132699 0.5
139 1 0.604035 0.154618 0.5
140 1 0.635456 0.140248 0.5
141 1 0.665627 0.16747 0.5
142 1 0.719781 0.160918 0.5
143 1 0.754826 0.149101 0.5
144 1 0.787447 0.1636 0.5
145 1 0.822839 0.134994 0.5
146 1 0.83946 0.128515 0.5
147 1 0.862338 0.13984 0.5
148 1 0.879302 0.121328 0.5
149 1 0.9296 0.116308 0.5
150 1 0.98322 0.125235 0.5
151 1 0.0101644 0.154886 0.5
152 1 0.0646687 0.168754 0.5
153 1 0.0996163 0.190737 0.5
154 1 0.113453 0.165252 0.5
155 1 0.131235 0.171034 0.5
156 1 0.143822 0.170477 0.5
157 1 0.217878 0.185002 0.5
158 1 0.258358 0.171694 0.5
159 1 0.27673 0.190916 0.5
160 1 0.270144 0.158478 0.5
161 1 0.355481 0.190789 0.5
162 1 0.381583 0.163355 0.5
163 1 0.432962 0.143703 0.5
164 1 0.443617 0.143766 0.5
165 1 0.453859 0.160106 0.5
166 1 0.53294 0.188276 0.5
167 1 0.56007 0.17967 0.5
168 1 0.564513 0.137807 0.5
169 1 0.60097 0.171305 0.5
170 1 0.66039 0.183565 0.5
171 1 0.695708 0.147108 0.5
172 1 0.699002 0.14693 0.5
173 1 0.719158 0.176023 0.5
174 1 0.764903 0.145033 0.5
175 1 0.781333 0.136872 0.5
176 1 0.85779 0.177171 0.5
177 1 0.88079 0.146761 0.5
178 1 0.878864 0.172789 0.5
179 1 0.904532 0.18066 0.5
180 1 0.999793 0.133055 0.5
181 1 0.0311303 0.19029 0.5
182 1 0.0299301 0.221258 0.5
183 1 0.0723048 0.197873 0.5
184 1 0.082787 0.186656 0.5
185 1 0.161526 0.229104 0.5
186 1 0.168949 0.235945 0.5
187 1 0.228732 0.22621 0.5
188 1 0.20536 0.197836 0.5
189 1 0.240745 0.183007 0.5
190 1 0.274399 0.212548 0.5
191 1 0.35253 0.225139 0.5
192 1 0.340634 0.206383 0.5
193 1 0.399971 0.211861 0.5
194 1 0.443132 0.17581 0.5
195 1 0.43439 0.200716 0.5
196 1 0.467251 0.1966 0.5
197 1 0.557081 0.216319 0.5
198 1 0.598792 0.187362 0.5
199 1 0.615434 0.19319 0.5
200 1 0.608977 0.220038 0.5
201 1 0.67052 0.176497 0.5
202 1 0.692239 0.218868 0.5
203 1 0.76375 0.219818 0.5
204 1 0.757394 0.170156 0.5
205 1 0.773217 0.199039 0.5
206 1 0.861692 0.218382 0.5
207 1 0.884837 0.197411 0.5
208 1 0.888224 0.180599 0.5
209 1 0.923977 0.218596 0.5
210 1 0.967934 0.189047 0.5
211 1 0.0208906 0.252818 0.5
212 1 0.0368711 0.266296 0.5
213 1 0.0965987 0.221416 0.5
214 1 0.134071 0.243559 0.5
215 1 0.146849 0.248079 0.5
216 1 0.164644 0.255474 0.5
217 1 0.169629 0.210493 0.5
218 1 0.202007 0.244259 0.5
219 1 0.256687 0.238936 0.5
220 1 0.271626 0.25297 0.5
221 1 0.30819 0.205077 0.5
222 1 0.392462 0.229989 0.5
223 1 0.411708 0.245455 0.5
224 1 0.420918 0.266515 0.5
225 1 0.460419 0.24259 0.5
226 1 0.524401 0.222028 0.5
227 1 0.529709 0.236451 0.5
228 1 0.600064 0.217974 0.5
229 1 0.588409 0.267997 0.5
230 1 0.647752 0.235748 0.5
231 1 0.667179 0.21563 0.5
232 1 0.729168 0.24695 0.5
233 1 0.72171 0.262717 0.5
234 1 0.767389 0.21392 0.5
235 1 0.773592 0.209483 0.5
236 1 0.799109 0.25234 0.5
237 1 0.865045 0.238532 0.5
238 1 0.907204 0.219128 0.5
239 1 0.930913 0.210721 0.5
240 1 0.951284 0.218798 0.5
241 1 0.0328536 0.25768 0.5
242 1 0.024073 0.262944 0.5
243 1 0.0838211 0.255671 0.5
244 1 0.135202 0.265185 0.5
245 1 0.155895 0.273892 0.5
246 1 0.193452 0.252288 0.5
247 1 0.170621 0.265009 0.5
248 1 0.252855 0.262341 0.5
249 1 0.275052 0.276201 0.5
250 1 0.292956 0.274746 0.5
251 1 0.323157 0.233138 0.5
252 1 0.366564 0.290206 0.5
253 1 0.385665 0.300407 0.5
254 1 0.40881 0.269424 0.5
255 1 0.490694 0.244207 0.5
256 1 0.467841 0.294112 0.5
257 1 0.534873 0.241658 0.5
258 1 0.553057 0.297779 0.5
259 1 0.624345 0.278438 0.5
260 1 0.641095 0.290405 0.5
261 1 0.690233 0.299174 0.5
262 1 0.711927 0.234715 0.5
263 1 0.74765 0.300312 0.5
264 1 0.777931 0.278488 0.5
265 1 0.781926 0.242548 0.5
266 1 0.868135 0.295093 0.5
267 1 0.863365 0.257414 0.5