ITEM: TIMESTEP
0
ITEM: NUMBER OF ATOMS
900
ITEM: BOX BOUNDS pp pp pp
0.0000000000000000e+00 3.0000000000000000e+02
0.0000000000000000e+00 3.0000000000000000e+02
-5.0000000000000000e+00 5.0000000000000000e+00
ITEM: ATOMS id type xs ys zs
1 1 0 0 0.5
2 1 0.0333333 0 0.5
3 1 0.0666667 0 0.5
4 1 0.1 0 0.5
5 1 0.133333 0 0.5
6 1 0.166667 0 0.5
7 1 0.2 0 0.5
8 1 0.233333 0 0.5
9 1 0.266667 0 0.5
10 1 0.3 0 0.5
11 1 0.333333 0 0.5
12 1 0.366667 0 0.5
13 1 0.4 0 0.5
14 1 0.433333 0 0.5
15 1 0.466667 0 0.5
16 1 0.5 0 0.5
17 1 0.533333 0 0.5
18 1 0.566667 0 0.5
19 1 0.6 0 0.5
20 1 0.633333 0 0.5
21 1 0.666667 0 0.5
22 1 0.7 0 0.5
23 1 0.733333 0 0.5
24 1 0.766667 0 0.5
25 1 0.8 0 0.5
26 1 0.833333 0 0.5
27 1 0.866667 0 0.5
28 1 0.9 0 0.5
29 1 0.933333 0 0.5
30 1 0.966667 0 0.5
31 1 0 0.0333333 0.5
32 1 0.0333333 0.0333333 0.5
33 1 0.0666667 0.0333333 0.5
34 1 0.1 0.0333333 0.5
35 1 0.133333 0.0333333 0.5
36 1 0.166667 0.0333333 0.5
37 1 0.2 0.0333333 0.5
38 1 0.233333 0.0333333 0.5
39 1 0.266667 0.0333333 0.5
40 1 0.3 0.0333333 0.5
41 1 0.333333 0.0333333 0.5
42 1 0.366667 0.0333333 0.5
43 1 0.4 0.0333333 0.5
44 1 0.433333 0.0333333 0.5
45 1 0.466667 0.0333333 0.5
46 1 0.5 0.0333333 0.5
47 1 0.533333 0.0333333 0.5
48 1 0.566667 0.0333333 0.5
49 1 0.6 0.0333333 0.5
50 1 0.633333 0.0333333 0.5
51 1 0.666667 0.0333333 0.5
52 1 0.7 0.0333333 0.5
53 1 0.733333 0.0333333 0.5
54 1 0.766667 0.0333333 0.5
55 1 0.8 0.0333333 0.5
56 1 0.833333 0.0333333 0.5
57 1 0.866667 0.0333333 0.5
58 1 0.9 0.0333333 0.5
59 1 0.933333 0.0333333 0.5
60 1 0.966667 0.0333333 0.5
61 1 0 0.0666667 0.5
62 1 0.0333333 0.0666667 0.5
63 1 0.0666667 0.0666667 0.5
64 1 0.1 0.0666667 0.5
65 1 0.133333 0.0666667 0.5
66 1 0.166667 0.0666667 0.5
67 1 0.2 0.0666667 0.5
68 1 0.233333 0.0666667 0.5
69 1 0.266667 0.0666667 0.5
70 1 0.3 0.0666667 0.5
71 1 0.333333 0.0666667 0.5
72 1 0.366667 0.0666667 0.5
73 1 0.4 0.0666667 0.5
74 1 0.433333 0.0666667 0.5
75 1 0.466667 0.0666667 0.5
76 1 0.5 0.0666667 0.5
77 1 0.533333 0.0666667 0.5
78 1 0.566667 0.0666667 0.5
79 1 0.6 0.0666667 0.5
80 1 0.633333 0.0666667 0.5
81 1 0.666667 0.0666667 0.5
82 1 0.7 0.0666667 0.5
83 1 0.733333 0.0666667 0.5
84 1 0.766667 0.0666667 0.5
85 1 0.8 0.0666667 0.5
86 1 0.833333 0.0666667 0.5
87 1 0.866667 0.0666667 0.5
88 1 0.9 0.0666667 0.5
89 1 0.933333 0.0666667 0.5
90 1 0.966667 0.0666667 0.5
91 1 0 0.1 0.5
92 1 0.0333333 0.1 0.5
93 1 0.0666667 0.1 0.5
94 1 0.1 0.1 0.5
95 1 0.133333 0.1 0.5
96 1 0.166667 0.1 0.5
97 1 0.2 0.1 0.5
98 1 0.233333 0.1 0.5
99 1 0.266667 0.1 0.5
100 1 0.3 0.1 0.5
101 1 0.333333 0.1 0.5
102 1 0.366667 0.1 0.5
103 1 0.4 0.1 0.5
104 1 0.433333 0.1 0.5
105 1 0.466667 0.1 0.5
106 1 0.5 0.1 0.5
107 1 0.533333 0.1 0.5
108 1 0.566667 0.1 0.5
109 1 0.6 0.1 0.5
110 1 0.633333 0.1 0.5
111 1 0.666667 0.1 0.5
112 1 0.7 0.1 0.5
113 1 0.733333 0.1 0.5
114 1 0.766667 0.1 0.5
115 1 0.8 0.1 0.5
116 1 0.833333 0.1 0.5
117 1 0.866667 0.1 0.5
118 1 0.9 0.1 0.5
119 1 0.933333 0.1 0.5
120 1 0.966667 0.1 0.5
121 1 0 0.133333 0.5
122 1 0.0333333 0.133333 0.5
123 1 0.0666667 0.133333 0.5
124 1 0.1 0.133333 0.5
125 1 0.133333 0.133333 0.5
126 1 0.166667 0.133333 0.5
127 1 0.2 0.133333 0.5
128 1 0.233333 0.133333 0.5
129 1 0.266667 0.133333 0.5
130 1 0.3 0.133333 0.5
131 1 0.333333 0.133333 0.5
132 1 0.366667 0.133333 0.5
133 1 0.4 0.133333 0.5
134 1 0.433333 0.133333 0.5
135 1 0.466667 0.133333 0.5
136 1 0.5 0.133333 0.5
137 1 0.533333 0.133333 0.5
138 1 0.566667 0.133333 0.5
139 1 0.6 0.133333 0.5
140 1 0.633333 0.133333 0.5
141 1 0.666667 0.133333 0.5
142 1 0.7 0.133333 0.5
143 1 0.733333 0.133333 0.5
144 1 0.766667 0.133333 0.5
145 1 0.8 0.133333 0.5
146 1 0.833333 0.133333 0.5
147 1 0.866667 0.133333 0.5
148 1 0.9 0.133333 0.5
149 1 0.933333 0.133333 0.5
150 1 0.966667 0.133333 0.5
151 1 0 0.166667 0.5
152 1 0.0333333 0.166667 0.5
153 1 0.0666667 0.166667 0.5
154 1 0.1 0.166667 0.5
155 1 0.133333 0.166667 0.5
156 1 0.166667 0.166667 0.5
157 1 0.2 0.166667 0.5
158 1 0.233333 0.166667 0.5
159 1 0.266667 0.166667 0.5
160 1 0.3 0.166667 0.5
161 1 0.333333 0.166667 0.5
162 1 0.366667 0.166667 0.5
163 1 0.4 0.166667 0.5
164 1 0.433333 0.166667 0.5
165 1 0.466667 0.166667 0.5
166 1 0.5 0.166667 0.5
167 1 0.533333 0.166667 0.5
168 1 0.566667 0.166667 0.5
169 1 0.6 0.166667 0.5
170 1 0.633333 0.166667 0.5
171 1 0.666667 0.166667 0.5
172 1 0.7 0.166667 0.5
173 1 0.733333 0.166667 0.5
174 1 0.766667 0.166667 0.5
175 1 0.8 0.166667 0.5
176 1 0.833333 0.166667 0.5
177 1 0.866667 0.166667 0.5
178 1 0.9 0.166667 0.5
179 1 0.933333 0.166667 0.5
180 1 0.966667 0.166667 0.5
181 1 0 0.2 0.5
182 1 0.0333333 0.2 0.5
183 1 0.0666667 0.2 0.5
184 1 0.1 0.2 0.5
185 1 0.133333 0.2 0.5
186 1 0.166667 0.2 0.5
187 1 0.2 0.2 0.5
188 1 0.233333 0.2 0.5
189 1 0.266667 0.2 0.5
190 1 0.3 0.2 0.5
191 1 0.333333 0.2 0.5
192 1 0.366667 0.2 0.5
193 1 0.4 0.2 0.5
194 1 0.433333 0.2 0.5
195 1 0.466667 0.2 0.5
196 1 0.5 0.2 0.5
197 1 0.533333 0.2 0.5
198 1 0.566667 0.2 0.5
199 1 0.6 0.2 0.5
200 1 0.633333 0.2 0.5
201 1 0.666667 0.2 0.5
202 1 0.7 0.2 0.5
203 1 0.733333 0.2 0.5
204 1 0.766667 0.2 0.5
205 1 0.8 0.2 0.5
206 1 0.833333 0.2 0.5
207 1 0.866667 0.2 0.5
208 1 0.9 0.2 0.5
209 1 0.933333 0.2 0.5
210 1 0.966667 0.2 0.5
211 1 0 0.233333 0.5
212 1 0.0333333 0.233333 0.5
213 1 0.0666667 0.233333 0.5
214 1 0.1 0.233333 0.5
215 1 0.133333 0.233333 0.5
216 1 0.166667 0.233333 0.5
217 1 0.2 0.233333 0.5
218 1 0.233333 0.233333 0.5
219 1 0.266667 0.233333 0.5
220 1 0.3 0.233333 0.5
221 1 0.333333 0.233333 0.5
222 1 0.366667 0.233333 0.5
223 1 0.4 0.233333 0.5
224 1 0.433333 0.233333 0.5
225 1 0.466667 0.233333 0.5
226 1 0.5 0.233333 0.5
227 1 0.533333 0.233333 0.5
228 1 0.566667 0.233333 0.5
229 1 0.6 0.233333 0.5
230 1 0.633333 0.233333 0.5
231 1 0.666667 0.233333 0.5
232 1 0.7 0.233333 0.5
233 1 0.733333 0.233333 0.5
234 1 0.766667 0.233333 0.5
235 1 0.8 0.233333 0.5
236 1 0.833333 0.233333 0.5
237 1 0.866667 0.233333 0.5
238 1 0.9 0.233333 0.5
239 1 0.933333 0.233333 0.5
240 1 0.966667 0.233333 0.5
241 1 0 0.266667 0.5
242 1 0.0333333 0.266667 0.5
243 1 0.0666667 0.266667 0.5
244 1 0.1 0.266667 0.5
245 1 0.133333 0.266667 0.5
246 1 0.166667 0.266667 0.5
247 1 0.2 0.266667 0.5
248 1 0.233333 0.266667 0.5
249 1 0.266667 0.266667 0.5
250 1 0.3 0.266667 0.5
251 1 0.333333 0.266667 0.5
252 1 0.366667 0.266667 0.5
253 1 0.4 0.266667 0.5
254 1 0.433333 0.266667 0.5
255 1 0.466667 0.266667 0.5
256 1 0.5 0.266667 0.5
257 1 0.533333 0.266667 0.5
258 1 0.566667 0.266667 0.5
259 1 0.6 0.266667 0.5
260 1 0.633333 0.266667 0.5
261 1 0.666667 0.266667 0.5
262 1 0.7 0.266667 0.5
263 1 0.733333 0.266667 0.5
264 1 0.766667 0.266667 0.5
265 1 0.8 0.266667 0.5
266 1 0.833333 0.266667 0.5
267 1 0.866667 0.266667 0.5
268 1 0.9 0.266667 0.5
269 1 0.933333 0.266667 0.5
270 1 0.966667 0.266667 0.5
271 1 0 0.3 0.5
272 1 0.0333333 0.3 0.5
273 1 0.0666667 0.3 0.5
274 1 0.1 0.3 0.5
275 1 0.133333 0.3 0.5
276 1 0.166667 0.3 0.5
277 1 0.2 0.3 0.5
278 1 0.233333 0.3 0.5
279 1 0.266667 0.3 0.5
280 1 0.3 0.3 0.5
281 1 0.333333 0.3 0.5
282 1 0.366667 0.3 0.5
283 1 0.4 0.3 0.5
284 1 0.433333 0.3 0.5
285 1 0.466667 0.3 0.5
286 1 0.5 0.3 0.5
287 1 0.533333 0.3 0.5
288 1 0.566667 0.3 0.5
289 1 0.6 0.3 0.5
290 1 0.633333 0.3 0.5
291 1 0.666667 0.3 0.5
292 1 0.7 0.3 0.5
293 1 0.733333 0.3 0.5
294 1 0.766667 0.3 0.5
295 1 0.8 0.3 0.5
296 1 0.833333 0.3 0.5
297 1 0.866667 0.3 0.5
298 1 0.9 0.3 0.5
299 1 0.933333 0.3 0.5
300 1 0.966667 0.3 0.5
301 1 0 0.333333 0.5
302 1 0.0333333 0.333333 0.5
303 1 0.0666667 0.333333 0.5
304 1 0.1 0.333333 0.5
305 1 0.133333 0.333333 0.5
306 1 0.166667 0.333333 0.5
307 1 0.2 0.333333 0.5
308 1 0.233333 0.333333 0.5
309 1 0.266667 0.333333 0.5
310 1 0.3 0.333333 0.5
311 1 0.333333 0.333333 0.5
312 1 0.366667 0.333333 0.5
313 1 0.4 0.333333 0.5
314 1 0.433333 0.333333 0.5
315 1 0.466667 0.333333 0.5
316 1 0.5 0.333333 0.5
317 1 0.533333 0.333333 0.5
318 1 0.566667 0.333333 0.5
319 1 0.6 0.333333 0.5
320 1 0.633333 0.333333 0.5
321 1 0.666667 0.333333 0.5
322 1 0.7 0.333333 0.5
323 1 0.733333 0.333333 0.5
324 1 0.766667 0.333333 0.5
325 1 0.8 0.333333 0.5
326 1 0.833333 0.333333 0.5
327 1 0.866667 0.333333 0.5
328 1 0.9 0.333333 0.5
329 1 0.933333 0.333333 0.5
330 1 0.966667 0.333333 0.5
331 1 0 0.366667 0.5
332 1 0.0333333 0.366667 0.5
333 1 0.0666667 0.366667 0.5
334 1 0.1 0.366667 0.5
335 1 0.133333 0.366667 0.5
336 1 0.166667 0.366667 0.5
337 1 0.2 0.366667 0.5
338 1 0.233333 0.366667 0.5
339 1 0.266667 0.366667 0.5
340 1 0.3 0.366667 0.5
341 1 0.333333 0.366667 0.5
342 1 0.366667 0.366667 0.5
343 1 0.4 0.366667 0.5
344 1 0.433333 0.366667 0.5
345 1 0.466667 0.366667 0.5
346 1 0.5 0.366667 0.5
347 1 0.533333 0.366667 0.5
348 1 0.566667 0.366667 0.5
349 1 0.6 0.366667 0.5
350 1 0.633333 0.366667 0.5
351 1 0.666667 0.366667 0.5
352 1 0.7 0.366667 0.5
353 1 0.733333 0.366667 0.5
354 1 0.766667 0.366667 0.5
355 1 0.8 0.366667 0.5
356 1 0.833333 0.366667 0.5
357 1 0.866667 0.366667 0.5
358 1 0.9 0.366667 0.5
359 1 0.933333 0.366667 0.5
360 1 0.966667 0.366667 0.5
361 1 0 0.4 0.5
362 1 0.0333333 0.4 0.5
363 1 0.0666667 0.4 0.5
364 1 0.1 0.4 0.5
365 1 0.133333 0.4 0.5
366 1 0.166667 0.4 0.5
367 1 0.2 0.4 0.5
368 1 0.233333 0.4 0.5
369 1 0.266667 0.4 0.5
370 1 0.3 0.4 0.5
371 1 0.333333 0.4 0.5
372 1 0.366667 0.4 0.5
373 1 0.4 0.4 0.5
374 1 0.433333 0.4 0.5
375 1 0.466667 0.4 0.5
376 1 0.5 0.4 0.5
377 1 0.533333 0.4 0.5
378 1 0.566667 0.4 0.5
379 1 0.6 0.4 0.5
380 1 0.633333 0.4 0.5
381 1 0.666667 0.4 0.5
382 1 0.7 0.4 0.5
383 1 0.733333 0.4 0.5
384 1 0.766667 0.4 0.5
385 1 0.8 0.4 0.5
386 1 0.833333 0.4 0.5
387 1 0.866667 0.4 0.5
388 1 0.9 0.4 0.5
389 1 0.933333 0.4 0.5
390 1 0.966667 0.4 0.5
391 1 0 0.433333 0.5
392 1 0.0333333 0.433333 0.5
393 1 0.0666667 0.433333 0.5
394 1 0.1 0.433333 0.5
395 1 0.133333 0.433333 0.5
396 1 0.166667 0.433333 0.5
397 1 0.2 0.433333 0.5
398 1 0.233333 0.433333 0.5
399 1 0.266667 0.433333 0.5
400 1 0.3 0.433333 0.5
401 1 0.333333 0.433333 0.5
402 1 0.366667 0.433333 0.5
403 1 0.4 0.433333 0.5
404 1 0.433333 0.433333 0.5
405 1 0.466667 0.433333 0.5
406 1 0.5 0.433333 0.5
407 1 0.533333 0.433333 0.5
408 1 0.566667 0.433333 0.5
409 1 0.6 0.433333 0.5
410 1 0.633333 0.433333 0.5
411 1 0.666667 0.433333 0.5
412 1 0.7 0.433333 0.5
413 1 0.733333 0.433333 0.5
414 1 0.766667 0.433333 0.5
415 1 0.8 0.433333 0.5
416 1 0.833333 0.433333 0.5
417 1 0.866667 0.433333 0.5
418 1 0.9 0.433333 0.5
419 1 0.933333 0.433333 0.5
420 1 0.966667 0.433333 0.5
421 1 0 0.466667 0.5
422 1 0.0333333 0.466667 0.5
423 1 0.0666667 0.466667 0.5
424 1 0.1 0.466667 0.5
425 1 0.133333 0.466667 0.5
426 1 0.166667 0.466667 0.5
427 1 0.2 0.466667 0.5
428 1 0.233333 0.466667 0.5
429 1 0.266667 0.466667 0.5
430 1 0.3 0.466667 0.5
431 1 0.333333 0.466667 0.5
432 1 0.366667 0.466667 0.5
433 1 0.4 0.466667 0.5
434 1 0.433333 0.466667 0.5
435 1 0.466667 0.466667 0.5
436 1 0.5 0.466667 0.5
437 1 0.533333 0.466667 0.5
438 1 0.566667 0.466667 0.5
439 1 0.6 0.466667 0.5
440 1 0.633333 0.466667 0.5
441 1 0.666667 0.466667 0.5
442 1 0.7 0.466667 0.5
443 1 0.733333 0.466667 0.5
444 1 0.766667 0.466667 0.5
445 1 0.8 0.466667 0.5
446 1 0.833333 0.466667 0.5
447 1 0.866667 0.466667 0.5
448 1 0.9 0.466667 0.5
449 1 0.933333 0.466667 0.5
450 1 0.966667 0.466667 0.5
451 1 0 0.5 0.5
452 1 0.0333333 0.5 0.5
453 1 0.0666667 0.5 0.5
454 1 0.1 0.5 0.5
455 1 0.133333 0.5 0.5
456 1 0.166667 0.5 0.5
457 1 0.2 0.5 0.5
458 1 0.233333 0.5 0.5
459 1 0.266667 0.5 0.5
460 1 0.3 0.5 0.5
461 1 0.333333 0.5 0.5
462 1 0.366667 0.5 0.5
463 1 0.4 0.5 0.5
464 1 0.433333 0.5 0.5
465 1 0.466667 0.5 0.5
466 1 0.5 0.5 0.5
467 1 0.533333 0.5 0.5
468 1 0.566667 0.5 0.5
469 1 0.6 0.5 0.5
470 1 0.633333 0.5 0.5
471 1 0.666667 0.5 0.5
472 1 0.7 0.5 0.5
473 1 0.733333 0.5 0.5
474 1 0.766667 0.5 0.5
475 1 0.8 0.5 0.5
476 1 0.833333 0.5 0.5
477 1 0.866667 0.5 0.5
478 1 0.9 0.5 0.5
479 1 0.933333 0.5 0.5
480 1 0.966667 0.5 0.5
481 1 0 0.533333 0.5
482 1 0.0333333 0.533333 0.5
483 1 0.0666667 0.533333 0.5
484 1 0.1 0.533333 0.5
485 1 0.133333 0.533333 0.5
486 1 0.166667 0.533333 0.5
487 1 0.2 0.533333 0.5
488 1 0.233333 0.533333 0.5
489 1 0.266667 0.533333 0.5
490 1 0.3 0.533333 0.5
491 1 0.333333 0.533333 0.5
492 1 0.366667 0.533333 0.5
493 1 0.4 0.533333 0.5
494 1 0.433333 0.533333 0.5
495 1 0.466667 0.533333 0.5
496 1 0.5 0.533333 0.5
497 1 0.533333 0.533333 0.5
498 1 0.566667 0.533333 0.5
499 1 0.6 0.533333 0.5
500 1 0.633333 0.533333 0.5
501 1 0.666667 0.533333 0.5
502 1 0.7 0.533333 0.5
503 1 0.733333 0.533333 0.5
504 1 0.766667 0.533333 0.5
505 1 0.8 0.533333 0.5
506 1 0.833333 0.533333 0.5
507 1 0.866667 0.533333 0.5
508 1 0.9 0.533333 0.5
509 1 0.933333 0.533333 0.5
510 1 0.966667 0.533333 0.5
511 1 0 0.566667 0.5
512 1 0.0333333 0.566667 0.5
513 1 0.0666667 0.566667 0.5
514 1 0.1 0.566667 0.5
515 1 0.133333 0.566667 0.5
516 1 0.166667 0.566667 0.5
517 1 0.2 0.566667 0.5
518 1 0.233333 0.566667 0.5
519 1 0.266667 0.566667 0.5
520 1 0.3 0.566667 0.5
521 1 0.333333 0.566667 0.5
522 1 0.366667 0.566667 0.5
523 1 0.4 0.566667 0.5
524 1 0.433333 0.566667 0.5
525 1 0.466667 0.566667 0.5
526 1 0.5 0.566667 0.5
527 1 0.533333 0.566667 0.5
528 1 0.566667 0.566667 0.5
529 1 0.6 0.566667 0.5
530 1 0.633333 0.566667 0.5
531 1 0.666667 0.566667 0.5
532 1 0.7 0.566667 0.5
533 1 0.733333 0.566667 0.5
534 1 0.766667 0.566667 0.5
535 1 0.8 0.566667 0.5
536 1 0.833333 0.566667 0.5
537 1 0.866667 0.566667 0.5
538 1 0.9 0.566667 0.5
539 1 0.933333 0.566667 0.5
540 1 0.966667 0.566667 0.5
541 1 0 0.6 0.5
542 1 0.0333333 0.6 0.5
543 1 0.0666667 0.6 0.5
544 1 0.1 0.6 0.5
545 1 0.133333 0.6 0.5
546 1 0.166667 0.6 0.5
547 1 0.2 0.6 0.5
548 1 0.233333 0.6 0.5
549 1 0.266667 0.6 0.5
550 1 0.3 0.6 0.5
551 1 0.333333 0.6 0.5
552 1 0.366667 0.6 0.5
553 1 0.4 0.6 0.5
554 1 0.433333 0.6 0.5
555 1 0.466667 0.6 0.5
556 1 0.5 0.6 0.5
557 1 0.533333 0.6 0.5
558 1 0.566667 0.6 0.5
559 1 0.6 0.6 0.5
560 1 0.633333 0.6 0.5
561 1 0.666667 0.6 0.5
562 1 0.7 0.6 0.5
563 1 0.733333 0.6 0.5
564 1 0.766667 0.6 0.5
565 1 0.8 0.6 0.5
566 1 0.833333 0.6 0.5
567 1 0.866667 0.6 0.5
568 1 0.9 0.6 0.5
569 1 0.933333 0.6 0.5
570 1 0.966667 0.6 0.5
571 1 0 0.633333 0.5
572 1 0.0333333 0.633333 0.5
573 1 0.0666667 0.633333 0.5
574 1 0.1 0.633333 0.5
575 1 0.133333 0.633333 0.5
576 1 0.166667 0.633333 0.5
577 1 0.2 0.633333 0.5
578 1 0.233333 0.633333 0.5
579 1 0.266667 0.633333 0.5
580 1 0.3 0.633333 0.5
581 1 0.333333 0.633333 0.5
582 1 0.366667 0.633333 0.5
583 1 0.4 0.633333 0.5
584 1 0.433333 0.633333 0.5
585 1 0.466667 0.633333 0.5
586 1 0.5 0.633333 0.5
587 1 0.533333 0.633333 0.5
588 1 0.566667 0.633333 0.5
589 1 0.6 0.633333 0.5
590 1 0.633333 0.633333 0.5
591 1 0.666667 0.633333 0.5
592 1 0.7 0.633333 0.5
593 1 0.733333 0.633333 0.5
594 1 0.766667 0.633333 0.5
595 1 0.8 0.633333 0.5
596 1 0.833333 0.633333 0.5
597 1 0.866667 0.633333 0.5
598 1 0.9 0.633333 0.5
599 1 0.933333 0.633333 0.5
600 1 0.966667 0.633333 0.5
601 1 0 0.666667 0.5
602 1 0.0333333 0.666667 0.5
603 1 0.0666667 0.666667 0.5
604 1 0.1 0.666667 0.5
605 1 0.133333 0.666667 0.5
606 1 0.166667 0.666667 0.5
607 1 0.2 0.666667 0.5
608 1 0.233333 0.666667 0.5
609 1 0.266667 0.666667 0.5
610 1 0.3 0.666667 0.5
611 1 0.333333 0.666667 0.5
612 1 0.366667 0.666667 0.5
613 1 0.4 0.666667 0.5
614 1 0.433333 0.666667 0.5
615 1 0.466667 0.666667 0.5
616 1 0.5 0.666667 0.5
617 1 0.533333 0.666667 0.5
618 1 0.566667 0.666667 0.5
619 1 0.6 0.666667 0.5
620 1 0.633333 0.666667 0.5
621 1 0.666667 0.666667 0.5
622 1 0.7 0.666667 0.5
623 1 0.733333 0.666667 0.5
624 1 0.766667 0.666667 0.5
625 1 0.8 0.666667 0.5
626 1 0.833333 0.666667 0.5
627 1 0.866667 0.666667 0.5
628 1 0.9 0.666667 0.5
629 1 0.933333 0.666667 0.5
630 1 0.966667 0.666667 0.5
631 1 0 0.7 0.5
632 1 0.0333333 0.7 0.5
633 1 0.0666667 0.7 0.5
634 1 0.1 0.7 0.5
635 1 0.133333 0.7 0.5
636 1 0.166667 0.7 0.5
637 1 0.2 0.7 0.5
638 1 0.233333 0.7 0.5
639 1 0.266667 0.7 0.5
640 1 0.3 0.7 0.5
641 1 0.333333 0.7 0.5
642 1 0.366667 0.7 0.5
643 1 0.4 0.7 0.5
644 1 0.433333 0.7 0.5
645 1 0.466667 0.7 0.5
646 1 0.5 0.7 0.5
647 1 0.533333 0.7 0.5
648 1 0.566667 0.7 0.5
649 1 0.6 0.7 0.5
650 1 0.633333 0.7 0.5
651 1 0.666667 0.7 0.5
652 1 0.7 0.7 0.5
653 1 0.733333 0.7 0.5
654 1 0.766667 0.7 0.5
655 1 0.8 0.7 0.5
656 1 0.833333 0.7 0.5
657 1 0.866667 0.7 0.5
658 1 0.9 0.7 0.5
659 1 0.933333 0.7 0.5
660 1 0.966667 0.7 0.5
661 1 0 0.733333 0.5
662 1 0.0333333 0.733333 0.5
663 1 0.0666667 0.733333 0.5
664 1 0.1 0.733333 0.5
665 1 0.133333 0.733333 0.5
666 1 0.166667 0.733333 0.5
667 1 0.2 0.733333 0.5
668 1 0.233333 0.733333 0.5
669 1 0.266667 0.733333 0.5
670 1 0.3 0.733333 0.5
671 1 0.333333 0.733333 0.5
672 1 0.366667 0.733333 0.5
673 1 0.4 0.733333 0.5
674 1 0.433333 0.733333 0.5
675 1 0.466667 0.733333 0.5
676 1 0.5 0.733333 0.5
677 1 0.533333 0.733333 0.5
678 1 0.566667 0.733333 0.5
679 1 0.6 0.733333 0.5
680 1 0.633333 0.733333 0.5
681 1 0.666667 0.733333 0.5
682 1 0.7 0.733333 0.5
683 1 0.733333 0.733333 0.5
684 1 0.766667 0.733333 0.5
685 1 0.8 0.733333 0.5
686 1 0.833333 0.733333 0.5
687 1 0.866667 0.733333 0.5
688 1 0.9 0.733333 0.5
689 1 0.933333 0.733333 0.5
690 1 0.966667 0.733333 0.5
691 1 0 0.766667 0.5
692 1 0.0333333 0.766667 0.5
693 1 0.0666667 0.766667 0.5
694 1 0.1 0.766667 0.5
695 1 0.133333 0.766667 0.5
696 1 0.166667 0.766667 0.5
697 1 0.2 0.766667 0.5
698 1 0.233333 0.766667 0.5
699 1 0.266667 0.766667 0.5
700 1 0.3 0.766667 0.5
701 1 0.333333 0.766667 0.5
702 1 0.366667 0.766667 0.5
703 1 0.4 0.766667 0.5
704 1 0.433333 0.766667 0.5
705 1 0.466667 0.766667 0.5
706 1 0.5 0.766667 0.5
707 1 0.533333 0.766667 0.5
708 1 0.566667 0.766667 0.5
709 1 0.6 0.766667 0.5
710 1 0.633333 0.766667 0.5
711 1 0.666667 0.766667 0.5
712 1 0.7 0.766667 0.5
713 1 0.733333 0.766667 0.5
714 1 0.766667 0.766667 0.5
715 1 0.8 0.766667 0.5
716 1 0.833333 0.766667 0.5
717 1 0.866667 0.766667 0.5
718 1 0.9 0.766667 0.5
719 1 0.933333 0.766667 0.5
720 1 0.966667 0.766667 0.5
721 1 0 0.8 0.5
722 1 0.0333333 0.8 0.5
723 1 0.0666667 0.8 0.5
724 1 0.1 0.8 0.5
725 1 0.133333 0.8 0.5
726 1 0.166667 0.8 0.5
727 1 0.2 0.8 0.5
728 1 0.233333 0.8 0.5
729 1 0.266667 0.8 0.5
730 1 0.3 0.8 0.5
731 1 0.333333 0.8 0.5
732 1 0.366667 0.8 0.5
733 1 0.4 0.8 0.5
734 1 0.433333 0.8 0.5
735 1 0.466667 0.8 0.5
736 1 0.5 0.8 0.5
737 1 0.533333 0.8 0.5
738 1 0.566667 0.8 0.5
739 1 0.6 0.8 0.5
740 1 0.633333 0.8 0.5
741 1 0.666667 0.8 0.5
742 1 0.7 0.8 0.5
743 1 0.733333 0.8 0.5
744 1 0.766667 0.8 0.5
745 1 0.8 0.8 0.5
746 1 0.833333 0.8 0.5
747 1 0.866667 0.8 0.5
748 1 0.9 0.8 0.5
749 1 0.933333 0.8 0.5
750 1 0.966667 0.8 0.5
751 1 0 0.833333 0.5
752 1 0.0333333 0.833333 0.5
753 1 0.0666667 0.833333 0.5
754 1 0.1 0.833333 0.5
755 1 0.133333 0.833333 0.5
756 1 0.166667 0.833333 0.5
757 1 0.2 0.833333 0.5
758 1 0.233333 0.833333 0.5
759 1 0.266667 0.833333 0.5
760 1 0.3 0.833333 0.5
761 1 0.333333 0.833333 0.5
762 1 0.366667 0.833333 0.5
763 1 0.4 0.833333 0.5
764 1 0.433333 0.833333 0.5
765 1 0.466667 0.833333 0.5
766 1 0.5 0.833333 0.5
767 1 0.533333 0.833333 0.5
768 1 0.566667 0.833333 0.5
769 1 0.6 0.833333 0.5
770 1 0.633333 0.833333 0.5
771 1 0.666667 0.833333 0.5
772 1 0.7 0.833333 0.5
773 1 0.733333 0.833333 0.5
774 1 0.766667 0.833333 0.5
775 1 0.8 0.833333 0.5
776 1 0.833333 0.833333 0.5
777 1 0.866667 0.833333 0.5
778 1 0.9 0.833333 0.5
779 1 0.933333 0.833333 0.5
780 1 0.966667 0.833333 0.5
781 1 0 0.866667 0.5
782 1 0.0333333 0.866667 0.5
783 1 0.0666667 0.866667 0.5
784 1 0.1 0.866667 0.5
785 1 0.133333 0.866667 0.5
786 1 0.166667 0.866667 0.5
787 1 0.2 0.866667 0.5
788 1 0.233333 0.866667 0.5
789 1 0.266667 0.866667 0.5
790 1 0.3 0.866667 0.5
791 1 0.333333 0.866667 0.5
792 1 0.366667 0.866667 0.5
793 1 0.4 0.866667 0.5
794 1 0.433333 0.866667 0.5
795 1 0.466667 0.866667 0.5
796 1 0.5 0.866667 0.5
797 1 0.533333 0.866667 0.5
798 1 0.566667 0.866667 0.5
799 1 0.6 0.866667 0.5
800 1 0.633333 0.866667 0.5
801 1 0.666667 0.866667 0.5
802 1 0.7 0.866667 0.5
803 1 0.733333 0.866667 0.5
804 1 0.766667 0.866667 0.5
805 1 0.8 0.866667 0.5
806 1 0.833333 0.866667 0.5
807 1 0.866667 0.866667 0.5
808 1 0.9 0.866667 0.5
809 1 0.933333 0.866667 0.5
810 1 0.966667 0.866667 0.5
811 1 0 0.9 0.5
812 1 0.0333333 0.9 0.5
813 1 0.0666667 0.9 0.5
814 1 0.1 0.9 0.5
815 1 0.133333 0.9 0.5
816 1 0.166667 0.9 0.5
817 1 0.2 0.9 0.5
818 1 0.233333 0.9 0.5
819 1 0.266667 0.9 0.5
820 1 0.3 0.9 0.5
821 1 0.333333 0.9 0.5
822 1 0.366667 0.9 0.5
823 1 0.4 0.9 0.5
824 1 0.433333 0.9 0.5
825 1 0.466667 0.9 0.5
826 1 0.5 0.9 0.5
827 1 0.533333 0.9 0.5
828 1 0.566667 0.9 0.5
829 1 0.6 0.9 0.5
830 1 0.633333 0.9 0.5
831 1 0.666667 0.9 0.5
832 1 0.7 0.9 0.5
833 1 0.733333 0.9 0.5
834 1 0.766667 0.9 0.5
835 1 0.8 0.9 0.5
836 1 0.833333 0.9 0.5
837 1 0.866667 0.9 0.5
838 1 0.9 0.9 0.5
839 1 0.933333 0.9 0.5
840 1 0.966667 0.9 0.5
841 1 0 0.933333 0.5
842 1 0.0333333 0.933333 0.5
843 1 0.0666667 0.933333 0.5
844 1 0.1 0.933333 0.5
845 1 0.133333 0.933333 0.5
846 1 0.166667 0.933333 0.5
847 1 0.2 0.933333 0.5
848 1 0.233333 0.933333 0.5
849 1 0.266667 0.933333 0.5
850 1 0.3 0.933333 0.5
851 1 0.333333 0.933333 0.5
852 1 0.366667 0.933333 0.5
853 1 0.4 0.933333 0.5
854 1 0.433333 0.933333 0.5
855 1 0.466667 0.933333 0.5
856 1 0.5 0.933333 0.5
857 1 0.533333 0.933333 0.5
858 1 0.566667 0.933333 0.5
859 1 0.6 0.933333 0.5
860 1 0.633333 0.933333 0.5
861 1 0.666667 0.933333 0.5
862 1 0.7 0.933333 0.5
863 1 0.733333 0.933333 0.5
864 1 0.766667 0.933333 0.5
865 1 0.8 0.933333 0.5
866 1 0.833333 0.933333 0.5
867 1 0.866667 0.933333 0.5
868 1 0.9 0.933333 0.5
869 1 0.933333 0.933333 0.5
870 1 0.966667 0.933333 0.5
871 1 0 0.966667 0.5
872 1 0.0333333 0.966667 0.5
873 1 0.0666667 0.966667 0.5
874 1 0.1 0.966667 0.5
875 1 0.133333 0.966667 0.5
876 1 0.166667 0.966667 0.5
877 1 0.2 0.966667 0.5
878 1 0.233333 0.966667 0.5
879 1 0.266667 0.966667 0.5
880 1 0.3 0.966667 0.5
881 1 0.333333 0.966667 0.5
882 1 0.366667 0.966667 0.5
883 1 0.4 0.966667 0.5
884 1 0.433333 0.966667 0.5
885 1 0.466667 0.966667 0.5
886 1 0.5 0.966667 0.5
887 1 0.533333 0.966667 0.5
888 1 0.566667 0.966667 0.5
889 1 0.6 0.966667 0.5
890 1 0.633333 0.966667 0.5
891 1 0.666667 0.966667 0.5
892 1 0.7 0.966667 0.5
893 1 0.733333 0.966667 0.5
894 1 0.766667 0.966667 0.5
895 1 0.8 0.966667 0.5
896 1 0.833333 0.966667 0.5
897 1 0.866667 0.966667 0.5
898 1 0.9 0.966667 0.5
899 1 0.933333 0.966667 0.5
900 1 0.966667 0.966667 0.5
ITEM: TIMESTEP
1000
ITEM: NUMBER OF ATOMS
900
ITEM: BOX BOUNDS pp pp pp
2.9199833183393395e+01 2.7080016681660607e+02
2.9199833183393395e+01 2.7080016681660607e+02
-5.0000000000000000e+00 5.0000000000000000e+00
ITEM: ATOMS id type xs ys zs
1 1 0.99756 0.985686 0.5
2 1 0.0429329 0.979945 0.5
3 1 0.10784 0.0197211 0.5
4 1 0.141297 0.963294 0.5
5 1 0.136079 0.017274 0.5
6 1 0.156446 0.961935 0.5
7 1 0.196541 0.980439 0.5
8 1 0.203771 0.97991 0.5
9 1 0.288292 0.0119445 0.5
10 1 0.298259 0.985734 0.5
11 1 0.351015 0.0132283 0.5
12 1 0.359557 0.971964 0.5
13 1 0.382653 0.977735 0.5
14 1 0.468628 0.989375 0.5
15 1 0.429634 0.0398377 0.5
16 1 0.477686 0.00824784 0.5
17 1 0.527454 0.02022 0.5
18 1 0.596124 0.028284 0.5
19 1 0.616913 0.966843 0.5
20 1 0.642981 0.00336007 0.5
21 1 0.680119 0.025712 0.5
22 1 0.679223 0.00098586 0.5
23 1 0.766012 0.965412 0.5
24 1 0.753723 0.962827 0.5
25 1 0.815531 0.960031 0.5
26 1 0.872396 0.995748 0.5
27 1 0.895971 0.995598 0.5
28 1 0.895904 0.966783 0.5
29 1 0.919571 0.0347785 0.5
30 1 0.929929 0.0347444 0.5
31 1 0.0414324 0.0476137 0.5
32 1 0.0430789 0.0312948 0.5
33 1 0.0299094 0.0590636 0.5
34 1 0.0898919 0.026999 0.5
35 1 0.111419 0.0109638 0.5
36 1 0.177111 0.0286376 0.5
37 1 0.168962 0.999442 0.5
38 1 0.205928 0.989714 0.5
39 1 0.224623 0.0700441 0.5
40 1 0.280206 0.0308829 0.5
41 1 0.317472 0.0757117 0.5
42 1 0.36183 0.00360438 0.5
43 1 0.36226 0.0258644 0.5
44 1 0.412081 0.0533894 0.5
45 1 0.482318 0.0354163 0.5
46 1 0.515297 0.0682995 0.5
47 1 0.559804 0.0409925 0.5
48 1 0.560121 0.0314552 0.5
49 1 0.627019 0.0415 0.5
50 1 0.63114 0.0717475 0.5
51 1 0.644766 0.0415525 0.5
52 1 0.666299 0.991898 0.5
53 1 0.724501 0.014959 0.5
54 1 0.800393 0.0277512 0.5
55 1 0.765232 0.0502757 0.5
56 1 0.804146 0.050247 0.5
57 1 0.836983 0.0696309 0.5
58 1 0.911842 0.0015811 0.5
59 1 0.941307 0.0131196 0.5
60 1 0.995754 0.0195907 0.5
61 1 0.031456 0.0477568 0.5
62 1 0.0021258 0.0338486 0.5
63 1 0.0505746 0.0860574 0.5
64 1 0.0930805 0.0961604 0.5
65 1 0.0963452 0.0792341 0.5
66 1 0.148279 0.0464401 0.5
67 1 0.17516 0.0802117 0.5
68 1 0.195827 0.0668746 0.5
69 1 0.283482 0.0629922 0.5
70 1 0.283455 0.0464312 0.5
71 1 0.357926 0.103773 0.5
72 1 0.381959 0.0375626 0.5
73 1 0.380666 0.0870527 0.5
74 1 0.421484 0.0950635 0.5
75 1 0.427867 0.0851663 0.5
76 1 0.46617 0.103596 0.5
77 1 0.521235 0.0641204 0.5
78 1 0.557831 0.0534225 0.5
79 1 0.586033 0.0390168 0.5
80 1 0.670118 0.0390708 0.5
81 1 0.708435 0.0857848 0.5
82 1 0.730407 0.0389639 0.5
83 1 0.743301 0.0636775 0.5
84 1 0.757075 0.0491718 0.5
85 1 0.791755 0.0764961 0.5
86 1 0.831504 0.049308 0.5
87 1 0.855067 0.0590529 0.5
88 1 0.888775 0.103692 0.5
89 1 0.962133 0.080487 0.5
90 1 0.00633129 0.0965796 0.5
91 1 0.971189 0.0685054 0.5
92 1 0.0559568 0.0965495 0.5
93 1 0.0717844 0.0914927 0.5
94 1 0.133845 0.0889855 0.5
95 1 0.127868 0.126258 0.5
96 1 0.15655 0.0671174 0.5
97 1 0.164932 0.113923 0.5
98 1 0.25177 0.117297 0.5
99 1 0.291916 0.104708 0.5
100 1 0.290086 0.0982666 0.5
101 1 0.31144 0.0689987 0.5
102 1 0.385384 0.0938569 0.5
103 1 0.368969 0.111126 0.5
104 1 0.456291 0.111029 0.5
105 1 0.432504 0.121935 0.5
106 1 0.492563 0.123436 0.5
107 1 0.541917 0.127693 0.5
108 1 0.535561 0.0704217 0.5
109 1 0.601537 0.10514 0.5
110 1 0.658947 0.073813 0.5
111 1 0.691329 0.0957111 0.5
112 1 0.712589 0.0789287 0.5
113 1 0.777382 0.0597797 0.5
114 1 0.747743 0.119713 0.5
115 1 0.77992 0.0662383 0.5
116 1 0.853029 0.0875206 0.5
117 1 0.861014 0.0860898 0.5
118 1 0.914756 0.105832 0.5
119 1 0.913802 0.0834727 0.5
120 1 0.987217 0.0707298 0.5
121 1 0.987211 0.13421 0.5
122 1 0.0449247 0.0964537 0.5
123 1 0.046523 0.140073 0.5
124 1 0.0785101 0.164814 0.5
125 1 0.164149 0.100572 0.5
126 1 0.12545 0.143174 0.5
127 1 0.175805 0.118448 0.5
128 1 0.249308 0.0993606 0.5
129 1 0.26749 0.115772 0.5
130 1 0.297593 0.137834 0.5
131 1 0.363836 0.153049 0.5
132 1 0.329367 0.130931 0.5
133 1 0.424058 0.10466 0.5
134 1 0.473515 0.14745 0.5
135 1 0.481041 0.162231 0.5
136 1 0.530567 0.134239 0.5
137 1 0.573445 0.123813 0.5
138 1 0.532636 0.138404 0.5
139 1 0.605037 0.159907 0.5
140 1 0.635983 0.141967 0.5
141 1 0.666175 0.17608 0.5
142 1 0.724696 0.167772 0.5
143 1 0.760166 0.153019 0.5
144 1 0.79261 0.171121 0.5
145 1 0.828514 0.135407 0.5
146 1 0.840982 0.127318 0.5
147 1 0.861263 0.141456 0.5
148 1 0.874159 0.118345 0.5
149 1 0.928673 0.112078 0.5
150 1 0.987333 0.123223 0.5
151 1 0.01269 0.151959 0.5
152 1 0.071546 0.177863 0.5
153 1 0.112177 0.192269 0.5
154 1 0.116795 0.164901 0.5
155 1 0.13074 0.172118 0.5
156 1 0.138119 0.171426 0.5
157 1 0.22232 0.189558 0.5
158 1 0.264576 0.172943 0.5
159 1 0.27923 0.196942 0.5
160 1 0.262726 0.156443 0.5
161 1 0.360985 0.196783 0.5
162 1 0.385289 0.162532 0.5
163 1 0.441425 0.138001 0.5
164 1 0.445899 0.138073 0.5
165 1 0.450677 0.158475 0.5
166 1 0.541124 0.193646 0.5
167 1 0.566714 0.1829 0.5
168 1 0.563977 0.130636 0.5
169 1 0.601211 0.172457 0.5
170 1 0.667113 0.187764 0.5
171 1 0.694754 0.14264 0.5
172 1 0.706925 0.141633 0.5
173 1 0.715636 0.178348 0.5
174 1 0.764464 0.139657 0.5
175 1 0.776694 0.129469 0.5
176 1 0.863867 0.179781 0.5
177 1 0.884299 0.141815 0.5
178 1 0.873612 0.17431 0.5
179 1 0.897376 0.184136 0.5
180 1 0.00764553 0.124297 0.5
181 1 0.0388654 0.187877 0.5
182 1 0.0290845 0.22654 0.5
183 1 0.0671717 0.200122 0.5
184 1 0.0806701 0.185011 0.5
185 1 0.161902 0.233588 0.5
186 1 0.176145 0.247623 0.5
187 1 0.235871 0.232722 0.5
188 1 0.19841 0.197298 0.5
189 1 0.234304 0.178785 0.5
190 1 0.268038 0.215666 0.5
191 1 0.357299 0.231386 0.5
192 1 0.334166 0.207969 0.5
193 1 0.399964 0.214808 0.5
194 1 0.445567 0.1698 0.5
195 1 0.42637 0.200894 0.5
196 1 0.459113 0.195755 0.5
197 1 0.562982 0.220374 0.5
198 1 0.606774 0.184221 0.5
199 1 0.619269 0.191498 0.5
200 1 0.602675 0.224643 0.5
201 1 0.670672 0.170529 0.5
202 1 0.690311 0.223556 0.5
203 1 0.771504 0.224349 0.5
204 1 0.75509 0.16274 0.5
205 1 0.766688 0.198963 0.5
206 1 0.868738 0.22295 0.5
207 1 0.889352 0.196767 0.5
208 1 0.885298 0.175779 0.5
209 1 0.922232 0.223231 0.5
210 1 0.968249 0.186326 0.5
211 1 0.024154 0.247047 0.5
212 1 0.0377063 0.274447 0.5
213 1 0.104036 0.218455 0.5
214 1 0.142538 0.246101 0.5
215 1 0.150206 0.251741 0.5
216 1 0.164278 0.260416 0.5
217 1 0.162083 0.204817 0.5
218 1 0.193821 0.245534 0.5
219 1 0.254207 0.240328 0.5
220 1 0.264572 0.257851 0.5
221 1 0.301943 0.198057 0.5
222 1 0.398871 0.229158 0.5
223 1 0.414617 0.248467 0.5
224 1 0.417833 0.274759 0.5
225 1 0.458866 0.24489 0.5
226 1 0.530465 0.219219 0.5
227 1 0.530122 0.237658 0.5
228 1 0.608612 0.214532 0.5
229 1 0.58553 0.27661 0.5
230 1 0.651335 0.236348 0.5
231 1 0.667306 0.211232 0.5
232 1 0.736335 0.250431 0.5
233 1 0.724395 0.271231 0.5
234 1 0.760495 0.211992 0.5
235 1 0.773782 0.20089 0.5
236 1 0.790606 0.257063 0.5
237 1 0.864642 0.239824 0.5
238 1 0.908994 0.215599 0.5
239 1 0.929732 0.205089 0.5
240 1 0.947462 0.215186 0.5
241 1 0.0408914 0.25622 0.5
242 1 0.0238688 0.271898 0.5
243 1 0.0880835 0.252938 0.5
244 1 0.143949 0.264817 0.5
245 1 0.161501 0.275687 0.5
246 1 0.20051 0.250187 0.5
247 1 0.163185 0.265124 0.5
248 1 0.25771 0.261264 0.5
249 1 0.267629 0.274951 0.5
250 1 0.298611 0.276077 0.5
251 1 0.320628 0.224807 0.5
252 1 0.366538 0.296055 0.5
253 1 0.381985 0.308741 0.5
254 1 0.402716 0.270109 0.5
255 1 0.496665 0.238626 0.5
256 1 0.459851 0.300932 0.5
257 1 0.533943 0.235012 0.5
258 1 0.549675 0.30551 0.5
259 1 0.630394 0.281363 0.5
260 1 0.643024 0.296303 0.5
261 1 0.696089 0.307252 0.5
262 1 0.709398 0.225466 0.5
263 1 0.75153 0.307863 0.5
264 1 0.78073 0.281425 0.5
265 1 0.777435 0.236555 0.5
266 1 0.876782 0.302157 0.5
267 1 0.862545 0.255115 0.5