LAMMPS (3 Mar 2020)
OMP_NUM_THREADS environment is not set. Defaulting to 1 thread. (../comm.cpp:94)
  using 1 OpenMP thread(s) per MPI task
# My test script

# INITIALISATION
units		lj
atom_style	sphere
dimension	2  #gives dimensionality of simulation

# SYSTEM DEFINITION
lattice		sq 0.01 #square unit cell with edge length = 0.01
Lattice spacing in x,y,z = 10 10 10
region		mybox block 0 30 0 30 -0.5 0.5 #changed ID from box to mybox to avoid confusion, gives xi min and max
create_box	1 mybox #changed ID from box to mybox, uses 1 atom types
Created orthogonal box = (0 0 -5) to (300 300 5)
  1 by 1 by 1 MPI processor grid
create_atoms	1 box #atoms of type 1 created in region on lattice points
Created 900 atoms
  create_atoms CPU = 0.00099802 secs
#N.B 'box' is correct in the line above; it specifies placement on lattic points

# SIMULATION SETTINGS
set		type 1 mass 1
  900 settings made for mass

velocity	all create 1.44 87287 loop geom
#all particles are allocated random velocities for T = 1.44. geom is a type of looping

# multi neighbor and comm for efficiency

neighbor	1 multi #This sets parameters for building pairwise neighbor lists
neigh_modify	delay 0 #No delay on building new neighbour lists
comm_modify     mode multi #affects inter-processor communication of atom information

# pair-wise interaction potential
#pair_style	none
pair_style lj/cut 2.5 #cut-off at 2.5
pair_coeff * * 1 1 #energy, distance units


#fix		1 all npt temp 2.0 2.0 1.0 iso 0.0 1.0 10.0 drag 1.0 #	        mtk no pchain 0 tchain 1   #SHRINKING BOX
fix 2 all nvt temp 1.44 1.44 1 #CONSTANT SIZE BOX
#Constant n,P,T compression at T = 2, from P = 0 to 1, no mkt adjustment, original thermostat

dump		1 all atom 1000 dump.2Dsphere

dump		3 all movie 1000 2Dsphere.mpg type type #		zoom 1.5 center d 0.5 0.5 0.5
#dump_modify	3 pad 5 adiam 1 5.0

thermo_style	custom step temp epair etotal press vol
#output timestep, temperature, pairwise energy, total energy, pressure, volume
thermo		1000  #output thermodynamic variables every 1000 timesteps

timestep	0.005
#size of timestep in given time units

run		50000
Neighbor list info ...
  update every 1 steps, delay 0 steps, check yes
  max neighbors/atom: 2000, page size: 100000
  master list distance cutoff = 3.5
  ghost atom cutoff = 3.5
  binsize = 1.75, bins = 172 172 6
  1 neighbor lists, perpetual/occasional/extra = 1 0 0
  (1) pair lj/cut, perpetual
      attributes: half, newton on
      pair build: half/multi/newton
      stencil: half/multi/2d/newton
      bin: standard
Per MPI rank memory allocation (min/avg/max) = 5.721 | 5.721 | 5.721 Mbytes
Step Temp E_pair TotEng Press Volume 
       0         1.44            0       1.4384     0.014384        90000 
    1000    1.4204774 -0.011916998    1.4069821  0.014658479        90000 
    2000    1.3836643 -0.017387496    1.3647394  0.014013681        90000 
    3000    1.4416589 -0.023429827    1.4166272  0.014448963        90000 
    4000    1.4724111 -0.017477989    1.4532971  0.014880174        90000 
    5000    1.4671802 -0.021189339    1.4443607  0.014687254        90000 
    6000    1.4626636 -0.017416727    1.4436217  0.015072826        90000 
    7000    1.4247852 -0.014730206    1.4084719  0.014014097        90000 
    8000     1.397389 -0.015395178    1.3804412  0.014035286        90000 
    9000     1.428051  -0.02128553    1.4051788  0.014032884        90000 
   10000    1.3714539  -0.01893442    1.3509956  0.013636104        90000 
   11000    1.4344261 -0.022623523    1.4102088  0.014466684        90000 
   12000    1.4163748  -0.02525038    1.3895506  0.014104167        90000 
   13000    1.4185411 -0.015984822    1.4009802  0.014036612        90000 
   14000    1.5179256 -0.018598094    1.4976409  0.015694406        90000 
   15000    1.5672775 -0.026300166    1.5392359  0.015616552        90000 
   16000    1.4769799 -0.027806995    1.4475318  0.014595209        90000 
   17000    1.4487992 -0.023714332    1.4234751  0.014477676        90000 
   18000    1.4341936 -0.024768702    1.4078314  0.014118634        90000 
   19000    1.4212212 -0.024586512    1.3950556  0.014166013        90000 
   20000    1.3938795 -0.025197758    1.3671329  0.014187362        90000 
   21000    1.4160531 -0.028101273    1.3863784  0.014693211        90000 
   22000    1.4015928  -0.02371912    1.3763164  0.013925911        90000 
   23000    1.4120523 -0.020756133    1.3897272  0.014019142        90000 
   24000    1.4075004 -0.0098746226    1.3960619   0.01457132        90000 
   25000     1.540017 -0.020049857    1.5182561  0.014985123        90000 
   26000    1.5274059   -0.0239911    1.5017177  0.015213078        90000 
   27000    1.4735285 -0.021719927    1.4501713  0.014585055        90000 
   28000    1.4228587 -0.021856566    1.3994212  0.014255748        90000 
   29000    1.3661705 -0.020609483     1.344043  0.013571047        90000 
   30000      1.36133 -0.022007007    1.3378104  0.013997994        90000 
   31000    1.4684297 -0.024026366    1.4427718  0.014696833        90000 
   32000    1.4906638 -0.028019388    1.4609881  0.014659581        90000 
   33000    1.4433591   -0.0236281    1.4181273  0.014975802        90000 
   34000    1.4018282 -0.018937372    1.3813332   0.01450229        90000 
   35000    1.3184449 -0.026171996     1.290808  0.013270167        90000 
   36000    1.4167158 -0.026524974    1.3886167  0.014242799        90000 
   37000    1.3792904 -0.020149345    1.3576085  0.013745429        90000 
   38000    1.3610447 -0.018597835    1.3409346  0.013750157        90000 
   39000    1.4090393 -0.021773364    1.3857004   0.01395156        90000 
   40000    1.4700443 -0.025028998    1.4433819  0.014482183        90000 
   41000    1.4702701 -0.027654744    1.4409818  0.014607291        90000 
   42000    1.4566356 -0.024521059     1.430496  0.014702602        90000 
   43000    1.5236592 -0.033948417    1.4880179  0.015400886        90000 
   44000     1.433466 -0.025123912    1.4067493  0.014138346        90000 
   45000    1.3705957 -0.026950037    1.3421228    0.0136913        90000 
   46000    1.3568764 -0.024565617    1.3308031  0.013299777        90000 
   47000    1.4084417 -0.024843418    1.3820333  0.014116748        90000 
   48000      1.44362 -0.026578702    1.4154373  0.014712361        90000 
   49000    1.5017524 -0.026412952    1.4736709  0.015027879        90000 
   50000    1.4557092 -0.026046293    1.4280454  0.014728447        90000 
Loop time of 2.09894 on 1 procs for 50000 steps with 900 atoms

Performance: 10290923.283 tau/day, 23821.582 timesteps/s
83.4% CPU use with 1 MPI tasks x 1 OpenMP threads

MPI task timing breakdown:
Section |  min time  |  avg time  |  max time  |%varavg| %total
---------------------------------------------------------------
Pair    | 0.32621    | 0.32621    | 0.32621    |   0.0 | 15.54
Neigh   | 0.16221    | 0.16221    | 0.16221    |   0.0 |  7.73
Comm    | 0.049878   | 0.049878   | 0.049878   |   0.0 |  2.38
Output  | 0.52891    | 0.52891    | 0.52891    |   0.0 | 25.20
Modify  | 0.78293    | 0.78293    | 0.78293    |   0.0 | 37.30
Other   |            | 0.2488     |            |       | 11.85

Nlocal:    900 ave 900 max 900 min
Histogram: 1 0 0 0 0 0 0 0 0 0
Nghost:    49 ave 49 max 49 min
Histogram: 1 0 0 0 0 0 0 0 0 0
Neighs:    172 ave 172 max 172 min
Histogram: 1 0 0 0 0 0 0 0 0 0

Total # of neighbors = 172
Ave neighs/atom = 0.191111
Neighbor list builds = 2224
Dangerous builds = 0
#number of timesteps

shell copy log.lammps log.2Dsphere
shell py energy_plot.py

Please see the log.cite file for references relevant to this simulation

Total wall time: 0:00:10
