LAMMPS nunchunk data file 

10  atoms          
9  bonds          
8  angles         
0  dihedrals      
0  impropers    

10 atom types     
9  bond types     
8  angle types    
0  dihedral types 
0  improper types 

-5.000000 5.000000 xlo xhi  
-5.000000 5.000000 ylo yhi  
-5.000000 5.000000 zlo zhi  

Masses

	 1  1.0 
	 2  1.0 
	 3  1.0 
	 4  1.0 
	 5  1.0 
	 6  1.0 
	 7  1.0 
	 8  1.0 
	 9  1.0 
	 10 1.0 

Atoms 

	 1 1 1 2.955658586728748 -1.0404864997302676 3.29995731724102 0 0 0 
	 2 1 2 2.0774724172922596 -1.3050562858279882 2.9547155467458013 0 0 0 
	 3 1 3 1.199286247855771 -1.5696260719257087 2.609473776250582 0 0 0 
	 4 1 4 0.32110007841928256 -1.834195858023429 2.2642320057553627 0 0 0 
	 5 1 5 -0.5570860910172057 -2.0987656441211495 1.918990235260144 0 0 0 
	 6 1 6 -1.4352722604536945 -2.3633354302188705 1.573748464764924 0 0 0 
	 7 1 7 -2.313458429890183 -2.6279052163165906 1.2285066942697052 0 0 0 
	 8 1 8 -3.191644599326671 -2.8924750024143107 0.8832649237744858 0 0 0 
	 9 1 9 -4.069830768763159 -3.1570447885120316 0.5380231532792679 0 0 0 
	 10 1 10 -4.9480169381996495 -3.4216145746097517 0.19278138278404766 0 0 0 


Bonds 

	 1 1 1 2 
	 2 2 2 3 
	 3 3 3 4 
	 4 4 4 5 
	 5 5 5 6 
	 6 6 6 7 
	 7 7 7 8 
	 8 8 8 9 
	 9 9 9 10 


Angles 

	 1 1 1 2 3 
	 2 2 2 3 4 
	 3 3 3 4 5 
	 4 4 4 5 6 
	 5 5 5 6 7 
	 6 6 6 7 8 
	 7 7 7 8 9 
	 8 8 8 9 10 
