LAMMPS nunchunk data file 

10  atoms          
9  bonds          
8  angles         
0  dihedrals      
0  impropers    

10 atom types     
9  bond types     
8  angle types    
0  dihedral types 
0  improper types 

-5.500000 5.500000 xlo xhi  
-5.500000 5.500000 ylo yhi  
-5.500000 5.500000 zlo zhi  

Masses

	 1  1.0 
	 2  1.0 
	 3  1.0 
	 4  1.0 
	 5  1.0 
	 6  1.0 
	 7  1.0 
	 8  1.0 
	 9  1.0 
	 10 1.0 

Atoms 

	 1 1 1 -1.734232776544328 0.32828945993719905 -2.482820822257599 0 0 0 
	 2 1 2 -1.5928305494509867 -0.26558727518255865 -1.7161945549952906 0 0 0 
	 3 1 3 -1.4514283223576452 -0.8594640103023163 -0.9495682877329821 0 0 0 
	 4 1 4 -1.310026095264304 -1.453340745422074 -0.18294202047067376 0 0 0 
	 5 1 5 -1.1686238681709624 -2.047217480541832 0.583684246791635 0 0 0 
	 6 1 6 -1.0272216410776212 -2.6410942156615898 1.3503105140539438 0 0 0 
	 7 1 7 -0.8858194139842799 -3.2349709507813467 2.1169367813162516 0 0 0 
	 8 1 8 -0.7444171868909386 -3.8288476859011045 2.8835630485785595 0 0 0 
	 9 1 9 -0.6030149597975971 -4.422724421020862 3.650189315840869 0 0 0 
	 10 1 10 -0.4616127327042556 -5.01660115614062 4.416815583103178 0 0 0 


Bonds 

	 1 1 1 2 
	 2 2 2 3 
	 3 3 3 4 
	 4 4 4 5 
	 5 5 5 6 
	 6 6 6 7 
	 7 7 7 8 
	 8 8 8 9 
	 9 9 9 10 


Angles 

	 1 1 1 2 3 
	 2 2 2 3 4 
	 3 3 3 4 5 
	 4 4 4 5 6 
	 5 5 5 6 7 
	 6 6 6 7 8 
	 7 7 7 8 9 
	 8 8 8 9 10 
