LAMMPS (3 Mar 2020)
OMP_NUM_THREADS environment is not set. Defaulting to 1 thread. (../comm.cpp:94)
  using 1 OpenMP thread(s) per MPI task
# VARIABLES
variable T         equal  0.5 # 0.1 0.36 0.70  #Can loop over this variable
variable num       equal  1 #labelling results only
variable N         equal  1000
variable box       equal  100 # cubic box of volume 'box'
variable t_step    equal  0.01 #originally 0.005
variable mix_steps index  50000 100000 150000 200000 250000 300000
variable mix_tau   equal  ${t_step}*${mix_steps}
variable mix_tau   equal  0.01*${mix_steps}
variable mix_tau   equal  0.01*50000
variable run_steps equal  5000 # steps to run simulation in order to reach steady state
variable run_tau   equal  ${t_step}*${run_steps} # this is the time in LJ units
variable run_tau   equal  0.01*${run_steps} 
variable run_tau   equal  0.01*5000 
#use index to loop over variable

# PARAMETERS
units lj
atom_style molecular
neighbor 0.4 bin
neigh_modify every 1 delay 1 check yes
comm_modify vel yes
comm_modify cutoff 1.9
#KG added to remove "Communication cutoff 1.52 is shorter than a bond length
#based estimate of 1.87. This may lead to errors" warning.

# READ
read_data input_data_nunchucks_${N}_${box}.file
read_data input_data_nunchucks_1000_${box}.file
read_data input_data_nunchucks_1000_100.file
  orthogonal box = (-50 -50 -50) to (50 50 50)
  1 by 1 by 1 MPI processor grid
  reading atoms ...
  10000 atoms
  scanning bonds ...
  1 = max bonds/atom
  scanning angles ...
  1 = max angles/atom
  reading bonds ...
  9000 bonds
  reading angles ...
  8000 angles
  2 = max # of 1-2 neighbors
  2 = max # of 1-3 neighbors
  4 = max # of 1-4 neighbors
  6 = max # of special neighbors
  special bonds CPU = 0.010958 secs
  read_data CPU = 0.0957448 secs

#  BONDS
bond_style harmonic
special_bonds lj 0 1 1
  2 = max # of 1-2 neighbors
  2 = max # of 1-3 neighbors
  4 = max # of 1-4 neighbors
  6 = max # of special neighbors
  special bonds CPU = 0.0119679 secs
bond_coeff * 500.0 0.98  # the wildcard (*) means to have the same for all bond types.
#0.98 is the distance between ball centres

# ANGLES
angle_style harmonic
angle_coeff * 500.0  180

# PAIR lj/cut --with interactions, to steady state
pair_style lj/cut 1.0
pair_modify shift yes
pair_coeff * * 1  1.0  1.12
#1.12 is cut-off for potential

# THERMAL
timestep ${t_step}
timestep 0.01
thermo   100
thermo_style custom step time temp press pe ke etotal vol
thermo_modify norm no
reset_timestep 0

# DUMP OUTPUT
dump  1  all custom 1000 output.dump id mol type x y z vx vy vz
dump_modify 1 sort id


# FIX
fix 2 all nph iso 0.5 0.5 100
fix 3 all langevin 0.5 0.5 1 123456
run ${mix_steps}
run 50000
Neighbor list info ...
  update every 1 steps, delay 1 steps, check yes
  max neighbors/atom: 2000, page size: 100000
  master list distance cutoff = 1.52
  ghost atom cutoff = 1.9
  binsize = 0.76, bins = 132 132 132
  1 neighbor lists, perpetual/occasional/extra = 1 0 0
  (1) pair lj/cut, perpetual
      attributes: half, newton on
      pair build: half/bin/newton
      stencil: half/bin/3d/newton
      bin: standard
Per MPI rank memory allocation (min/avg/max) = 19.93 | 19.93 | 19.93 Mbytes
Step Time Temp Press PotEng KinEng TotEng Volume 
       0            0            0 -1.5395349e-16 1.5065726e-10            0 1.5065726e-10 1000000 
     100            1   0.33580281 0.00028694277    4553.1712    5036.5384    9589.7096    992661.24 
     200            2   0.43872276 -0.00035040521    6289.7958    6580.1833    12869.979    975772.86 
     300            3   0.47583143 0.00096501823    6921.4839    7136.7577    14058.242    960492.84 
     400            4   0.49008083 0.00014416013    7124.5132    7350.4773     14474.99    945601.01 
     500            5   0.49630676 -0.00094428652    7204.9122     7443.857    14648.769    931494.42 
     600            6   0.50123927 -0.00012136251    7291.7086    7517.8372    14809.546    918952.24 
     700            7     0.504227 -0.00056174323    7374.9179    7562.6487    14937.567    907246.21 
     800            8    0.4995627 -0.00043931854    7377.5177    7492.6911    14870.209    896027.57 
     900            9   0.49738859 0.0010897269    7242.4777    7460.0827     14702.56    885219.31 
    1000           10   0.50195857 0.00039892305    7269.3591    7528.6256    14797.985    874770.13 
    1100           11   0.50207012 -4.2445322e-05    7302.4615    7530.2987     14832.76    864639.06 
    1200           12   0.50966437 0.00044035523    7260.1451    7644.2011    14904.346    854796.61 
    1300           13   0.49566762 0.00063089974    7184.2572    7434.2707    14618.528    845216.08 
    1400           14   0.49632607 -0.0015152597    7276.4288    7444.1465    14720.575    835884.15 
    1500           15    0.5007545 0.0014066931    7343.6951    7510.5664    14854.261    826781.18 
    1600           16   0.50107026 8.5233569e-05    7254.9655    7515.3022    14770.268    817893.17 
    1700           17   0.50469402 0.00018060946    7228.7773    7569.6532     14798.43    809207.92 
    1800           18   0.50421963 0.00040642525    7339.1749    7562.5381    14901.713    800717.41 
    1900           19   0.50306732 -0.0011974304    7197.5719    7545.2551    14742.827    792411.34 
    2000           20   0.50162182 -0.00014229657    7259.5067    7523.5749    14783.082    784283.19 
    2100           21   0.49659784 0.00038744842    7304.5854    7448.2227    14752.808    776323.97 
    2200           22   0.50378369 -0.00012622305    7223.4671    7555.9996    14779.467    768522.77 
    2300           23   0.49696765 -0.00012125321    7285.5134    7453.7692    14739.283    760876.69 
    2400           24   0.50414413 0.00046352044    7398.0512    7561.4058    14959.457    753381.11 
    2500           25   0.49944936 0.00016641347    7215.8499    7490.9913    14706.841    746029.31 
    2600           26   0.49316603  0.000342564    7335.7177    7396.7506    14732.468     738816.5 
    2700           27   0.48763845 0.00067162432    7221.9931    7313.8453    14535.838    731735.32 
    2800           28   0.49260628 -0.00068702681    7144.3122    7388.3553    14532.667    724782.45 
    2900           29   0.49922725 0.0015678743    7256.5348    7487.6599    14744.195    717955.06 
    3000           30   0.49727991 -0.0028988181    7300.7334    7458.4527    14759.186    711249.49 
    3100           31   0.49560364 0.0008765379    7287.0609    7433.3112    14720.372     704659.7 
    3200           32   0.49949155 0.00071149455    7268.3367     7491.624    14759.961    698183.48 
    3300           33   0.50393265 -0.0018086663    7161.3407    7558.2339    14719.575    691818.15 
    3400           34   0.49592529 0.0012572301    7261.0745    7438.1355     14699.21    685560.65 
    3500           35   0.49833351 0.00080907286    7214.3313    7474.2552    14688.586    679405.49 
    3600           36   0.49600524 -0.0009646353    7252.1863    7439.3345    14691.521    673351.89 
    3700           37    0.4982129 0.0010751518    7332.8445    7472.4461    14805.291    667395.49 
    3800           38   0.50371342 -0.0023955751    7231.5391    7554.9457    14786.485    661534.96 
    3900           39   0.49655512 0.00037957598    7235.0788     7447.582    14682.661    655766.85 
    4000           40   0.50056365 0.00081725454    7385.1267    7507.7039    14892.831    650090.26 
    4100           41   0.50807835 0.00050338094    7247.3147    7620.4131    14867.728    644504.36 
    4200           42   0.50296926 -0.00013103509    7315.5613    7543.7844    14859.346    639002.84 
    4300           43   0.49959309 0.00087679472    7316.2793     7493.147    14809.426    633582.88 
    4400           44   0.50148197 -0.0010358379    7334.0742    7521.4773    14855.552    628246.84 
    4500           45   0.50135214 2.0840019e-06    7181.7381    7519.5301    14701.268    622991.04 
    4600           46    0.4936417 -0.0005153623    7290.7957     7403.885    14694.681    617812.58 
    4700           47   0.50100961 0.0026206737    7192.1204    7514.3926    14706.513     612708.6 
    4800           48   0.50768472 -0.0021022308     7197.972    7614.5093    14812.481    607681.67 
    4900           49   0.50391308 0.0016136554    7153.2908    7557.9404    14711.231     602727.5 
    5000           50   0.50893186 0.00024448149     7292.191    7633.2145    14925.405     597845.1 
    5100           51   0.49754117 0.00092880854    7297.4491    7462.3713     14759.82    593030.48 
    5200           52   0.50045901 0.0015009643    7194.4255    7506.1345     14700.56    588284.95 
    5300           53   0.50456631 -0.0025118052     7216.279    7567.7378    14784.017    583604.82 
    5400           54   0.49381901 0.0012179272     7285.166    7406.5444     14691.71    578989.08 
    5500           55   0.49679857 -0.0020568053    7231.3821    7451.2334    14682.615    574438.26 
    5600           56   0.50031718 0.00027213354    7279.1964    7504.0072    14783.204    569948.71 
    5700           57   0.50063254 0.00026365676    7277.8117    7508.7371    14786.549    565519.95 
    5800           58   0.50728806 -0.0014351092    7153.2199      7608.56     14761.78    561151.65 
    5900           59   0.49757144 -0.0012222691    7314.6088    7462.8252    14777.434    556840.46 
    6000           60   0.50430561 -0.00041466003    7227.9773    7563.8277    14791.805    552586.63 
    6100           61   0.49734138 -0.00033316502    7213.3729    7459.3747    14672.748    548390.14 
    6200           62   0.50606607  0.001660643    7236.4508     7590.232    14826.683     544247.4 
    6300           63    0.4988633 -0.001989458    7437.8187    7482.2012     14920.02    540161.17 
    6400           64   0.50822233 0.0026226151    7247.5727    7622.5727    14870.145    536126.62 
    6500           65    0.4991909 -0.0012135584    7198.3997    7487.1148    14685.514    532142.82 
    6600           66   0.49850121 -0.00027818885    7280.5006    7476.7704    14757.271    528210.28 
    6700           67   0.50239024 0.0013596555    7375.0309       7535.1    14910.131    524327.64 
    6800           68   0.49855711 0.0016252681    7351.8957    7477.6089    14829.505    520493.26 
    6900           69   0.50213321 -0.001930152    7396.1121    7531.2449    14927.357    516707.63 
    7000           70   0.50523294 0.0020272046    7349.3166    7577.7362    14927.053    512969.73 
    7100           71   0.50312227 -0.0016864761    7356.6251    7546.0793    14902.704    509277.69 
    7200           72   0.50448212 -0.0010052711    7281.8081     7566.475    14848.283    505629.41 
    7300           73    0.5010573 0.00070793899    7377.1788     7515.108    14892.287    502025.87 
    7400           74   0.49892109 -0.00058221538    7388.5265    7483.0679    14871.594    498465.93 
    7500           75   0.50094126 -0.00043569031    7232.6635    7513.3675    14746.031    494949.88 
    7600           76   0.49816734 0.0020548798    7286.1828    7471.7628    14757.946    491475.38 
    7700           77    0.4993974 0.00047695982    7347.1361     7490.212    14837.348    488042.66 
    7800           78   0.49954852 0.00037045517    7378.9063    7492.4785    14871.385    484650.35 
    7900           79   0.50305542 -0.00013201944    7330.4177    7545.0767    14875.494    481298.56 
    8000           80   0.49866052 -0.00056549248    7337.4267    7479.1598    14816.587    477985.89 
    8100           81   0.50129327 0.00090505895    7361.2064    7518.6471    14879.854    474711.66 
    8200           82   0.50236305 -0.00036101619    7251.4193    7534.6922    14786.111    471474.49 
    8300           83   0.49470321 -0.00028858166    7210.0678    7419.8061    14629.874    468274.82 
    8400           84   0.50714749 0.0016093474    7281.5826    7606.4516    14888.034    465113.27 
    8500           85   0.49911797 5.4855463e-05    7367.0282    7486.0208    14853.049    461987.43 
    8600           86   0.49845924 0.0026029079    7253.7189    7476.1409     14729.86    458895.73 
    8700           87   0.50707979 -0.00099489256    7294.3899    7605.4362    14899.826    455838.92 
    8800           88   0.50889078 0.00051053894    7219.6356    7632.5984    14852.234    452815.73 
    8900           89   0.49663941 -0.00086743778     7369.125    7448.8462    14817.971    449826.86 
    9000           90   0.49818574 0.00057207571    7302.6775    7472.0389    14774.716    446872.42 
    9100           91   0.49581989 0.0014533876    7294.1445    7436.5546    14730.699    443950.35 
    9200           92   0.49849288 -0.001365117    7229.7014    7476.6455    14706.347    441060.61 
    9300           93   0.50670506 0.0006928775    7205.3911    7599.8159    14805.207    438202.37 
    9400           94   0.50650627 -0.00019659694     7279.134    7596.8342    14875.968    435375.89 
    9500           95   0.50354843 -0.001066512    7364.1956    7552.4711    14916.667    432578.94 
    9600           96   0.50124725 -0.00015699322    7276.9264    7517.9569    14794.883    429812.06 
    9700           97   0.50291797 0.00071858366    7164.4143    7543.0152    14707.429    427074.43 
    9800           98   0.50350584 -0.00068448137    7332.8438    7551.8323    14884.676    424365.84 
    9900           99   0.50270508 -0.00029518823    7378.0665    7539.8222    14917.889    421686.28 
   10000          100     0.495094 -7.180882e-05    7361.8536    7425.6674    14787.521    419035.57 
   10100          101   0.49450554 3.421856e-05    7270.1583    7416.8414        14687    416411.96 
   10200          102   0.49268852 -0.00053759098    7336.9855    7389.5887    14726.574    413816.32 
   10300          103   0.49628078 0.0005356918    7194.7194    7443.4673    14638.187    411247.45 
   10400          104   0.50128927 -0.0010047057     7262.317    7518.5871    14780.904    408705.95 
   10500          105   0.50892623 0.00031028059    7184.6053    7633.1301    14817.735    406189.88 
   10600          106   0.50334819 -0.0012516531    7288.0947    7549.4679    14837.563    403699.63 
   10700          107   0.50437732 0.00023099535    7221.0148    7564.9033    14785.918     401235.3 
   10800          108   0.49972444 -0.0012746297     7303.817     7495.117    14798.934    398796.14 
   10900          109    0.4967488 -0.0011695196    7275.7322    7450.4869    14726.219    396381.26 
   11000          110   0.50044582 -0.00033477092    7272.0965    7505.9366    14778.033    393990.62 
   11100          111   0.49484226 -0.00056566674    7240.2591    7421.8916    14662.151    391624.61 
   11200          112   0.50063069 0.0011955986    7183.0247    7508.7095    14691.734    389282.63 
   11300          113   0.50227678 -0.0023086106    7352.9658    7533.3983    14886.364    386964.24 
   11400          114   0.49847157 0.0008620631    7327.4082    7476.3258    14803.734    384667.55 
   11500          115   0.50458641 -8.6914917e-05    7305.4083    7568.0393    14873.448    382393.37 
   11600          116   0.50307899 0.00048749443    7341.6188    7545.4302    14887.049    380142.33 
   11700          117   0.49924427 -0.0029257445    7353.1081    7487.9151    14841.023    377913.28 
   11800          118   0.50538307  0.002065011    7379.5025    7579.9879     14959.49    375704.48 
   11900          119    0.5044505 0.00051996253    7225.8572    7566.0008    14791.858     373517.9 
   12000          120   0.50538544 -0.0019329891    7310.4094    7580.0235    14890.433    371352.98 
   12100          121   0.49403684  0.000190833    7260.2265    7409.8116    14670.038    369208.89 
   12200          122    0.4970721 0.0024599818    7276.0109    7455.3359    14731.347    367085.06 
   12300          123   0.49611297 -0.0023504055    7178.4077    7440.9504    14619.358    364982.01 
   12400          124   0.49804932 0.0017606276    7253.4954    7469.9928    14723.488    362897.47 
   12500          125   0.49995609 -0.00055005791    7260.0892    7498.5914    14758.681    360832.69 
   12600          126   0.49619504  0.002770188    7355.1449    7442.1813    14797.326    358788.12 
   12700          127   0.49890964 -0.0021743138    7431.0264    7482.8962    14913.923    356763.88 
   12800          128   0.50021926 -0.0019980642    7410.0431    7502.5386    14912.582    354758.35 
   12900          129   0.50447594 0.0012729918    7243.7753    7566.3824    14810.158    352769.99 
   13000          130   0.49895733 -5.2970129e-05    7357.1431    7483.6115    14840.755    350799.81 
   13100          131   0.49930377 -0.00025558371    7175.4988    7488.8075    14664.306    348847.85 
   13200          132   0.50320905 0.0017064238    7225.5992    7547.3809     14772.98    346914.24 
   13300          133   0.49569393 0.0024278109     7168.837    7434.6654    14603.502    344998.77 
   13400          134   0.49666573 -0.00061735421    7284.5489     7449.241     14733.79    343100.97 
   13500          135   0.50659676 0.00073564252    7232.1974    7598.1914    14830.389    341221.32 
   13600          136    0.5053573 0.00089927846    7229.3249    7579.6015    14808.926    339357.14 
   13700          137   0.50437273 -8.5437103e-05    7190.9748    7564.8344    14755.809    337509.99 
   13800          138   0.49963267 0.0020331773    7301.3061    7493.7406    14795.047    335678.18 
   13900          139   0.49616021 -0.00056114289     7286.629    7441.6588    14728.288    333863.16 
   14000          140    0.4992598 -0.0019446801    7298.7934    7488.1481    14786.942    332064.61 
   14100          141   0.50104359 0.00059492055    7394.8287    7514.9022    14909.731    330282.38 
   14200          142   0.49919261 0.00058648294    7260.5415    7487.1403    14747.682    328516.98 
   14300          143   0.49384617 -0.0012781381    7318.1608    7406.9518    14725.113    326767.29 
   14400          144   0.49820599 0.0012917358    7214.7553    7472.3425    14687.098    325032.35 
   14500          145   0.50075717 -0.00068999108    7111.0666    7510.6064    14621.673    323313.03 
   14600          146   0.49847017  0.002050016    7153.5361    7476.3049    14629.841    321608.25 
   14700          147    0.4957142 -0.00019652419    7210.0936    7434.9694    14645.063    319918.66 
   14800          148   0.49839011 -0.00051421386    7227.6823    7475.1041    14702.786    318243.42 
   14900          149   0.49534901 0.00097406926    7138.2971    7429.4921    14567.789    316582.97 
   15000          150   0.50211583 0.0020376972    7111.3716    7530.9842    14642.356    314936.52 
   15100          151   0.49936815 -0.0018512863    7271.4704    7489.7731    14761.244    313303.62 
   15200          152   0.49809599 -0.0016786004    7288.8311    7470.6926    14759.524    311684.47 
   15300          153   0.49777072 0.0033531336    7305.4441    7465.8142    14771.258    310079.83 
   15400          154   0.50100987 -0.00079781434    7330.8122    7514.3966    14845.209    308489.08 
   15500          155   0.50468782 2.476575e-05    7271.9228    7569.5602    14841.483    306911.02 
   15600          156   0.49362149 -0.0013000068     7323.574    7403.5819    14727.156    305345.86 
   15700          157   0.50047781 0.00034367144    7328.2867    7506.4165    14834.703    303793.24 
   15800          158   0.50637932 0.0014704319    7319.8631    7594.9303    14914.793     302253.7 
   15900          159   0.50529774 0.00041304794    7320.0544    7578.7081    14898.762    300727.45 
   16000          160   0.49757312 -0.0020514233    7282.4762    7462.8504    14745.327    299214.01 
   16100          161    0.5030754 -0.0032581724    7218.4869    7545.3763    14763.863    297712.64 
   16200          162   0.49048827 0.00031107812    7203.2573    7356.5883    14559.846    296223.39 
   16300          163   0.49191912 -0.00059931911    7193.0104    7378.0489    14571.059    294746.59 
   16400          164   0.49456375 -0.001225104     7175.538    7417.7144    14593.252    293281.81 
   16500          165   0.50143468 0.00087175558     7215.621    7520.7681    14736.389    291829.05 
   16600          166   0.50686679 -0.0019189473    7374.6037    7602.2415    14976.845    290388.27 
   16700          167   0.50236327 0.0026956487    7323.8765    7534.6955    14858.572    288959.82 
   16800          168   0.49677567 -0.0032226025      7319.35    7450.8899     14770.24    287543.24 
   16900          169   0.49612072 0.0036635062    7123.4985    7441.0666    14564.565     286137.2 
   17000          170   0.49993817 -0.0026374742    7146.0706    7498.3226    14644.393    284743.03 
   17100          171   0.49997201 0.0023318161    7224.9671    7498.8302    14723.797    283360.24 
   17200          172   0.49605867 -0.0019581747    7297.3388     7440.136    14737.475    281988.56 
   17300          173   0.49555423 0.0026721024    7272.2728    7432.5701    14704.843     280627.2 
   17400          174   0.49683739 -0.0031121706    7312.3545    7451.8156     14764.17    279276.47 
   17500          175   0.50038912 -0.0019015461    7306.3541    7505.0862     14811.44    277935.76 
   17600          176   0.50372224 0.00086573985    7287.5399    7555.0779    14842.618    276606.05 
   17700          177   0.49835524 -0.00021779081    7282.3737    7474.5811    14756.955    275286.65 
   17800          178   0.49323553 0.0013050076    7296.5814     7397.793    14694.374    273977.39 
   17900          179   0.50313175 -0.0013237233    7336.7972    7546.2215    14883.019    272678.67 
   18000          180     0.496457 0.00089483701    7366.3836    7446.1103    14812.494    271389.13 
   18100          181   0.50448993 -0.0013932207    7269.8013    7566.5922    14836.394    270110.49 
   18200          182   0.50638422 0.0048268522    7266.5343    7595.0037    14861.538    268841.24 
   18300          183   0.49851316 -0.0028122396    7374.4988    7476.9496    14851.448     267582.3 
   18400          184   0.49979367 -0.001330154    7366.4605    7496.1554    14862.616    266332.49 
   18500          185   0.49724321 0.0047621747     7160.021    7457.9022    14617.923    265092.25 
   18600          186   0.49636465 -0.0055872633    7230.5787    7444.7252    14675.304    263861.74 
   18700          187    0.5015103 0.0062933375     7350.694    7521.9022    14872.596    262640.67 
   18800          188   0.50324194 -0.0041906222     7346.904    7547.8742    14894.778    261429.09 
   18900          189   0.49702071 -0.0019649965    7336.5104    7454.5651    14791.076    260226.43 
   19000          190   0.50717656 0.0043845384    7191.9954    7606.8877    14798.883    259031.71 
   19100          191   0.49800818 -0.0013756492    7296.6474    7469.3757    14766.023    257846.23 
   19200          192   0.49739217 0.0024711043    7242.2937    7460.1365     14702.43    256670.49 
   19300          193   0.50693954 -0.002550946     7200.996    7603.3327    14804.329    255504.24 
   19400          194   0.49582126 0.00051753947    7303.2698    7436.5752    14739.845    254346.16 
   19500          195   0.50526114 -0.0028005956    7208.1382    7578.1592    14786.297    253196.49 
   19600          196   0.49938919 0.00032164442    7238.2479    7490.0888    14728.337    252054.92 
   19700          197   0.49496777 0.00014092766    7262.8727    7423.7741    14686.647    250921.59 
   19800          198   0.49672478 0.0016291117    7230.6185    7450.1266    14680.745    249797.09 
   19900          199     0.499165 -0.0017163541    7260.1823    7486.7263    14746.909    248680.72 
   20000          200   0.50494226 0.0040367734     7300.797    7573.3765    14874.173    247572.56 
   20100          201   0.49899327 -0.0012676448    7237.5057    7484.1505    14721.656    246473.36 
   20200          202   0.49821413 -0.0027866625    7168.0689    7472.4647    14640.534     245381.8 
   20300          203   0.49417667 -0.0012479912    7264.1234    7411.9088    14676.032    244297.24 
   20400          204   0.50075247  0.004102913     7292.506    7510.5359    14803.042    243219.03 
   20500          205   0.49916802 -0.0022449787    7185.7965    7486.7715    14672.568     242149.2 
   20600          206   0.50229935 0.00071236705     7317.656    7533.7368    14851.393    241087.49 
   20700          207   0.49730498 -0.00080139535    7341.9496    7458.8287    14800.778    240033.57 
   20800          208   0.50229652 -0.00075207266    7294.5639    7533.6943    14828.258    238986.87 
   20900          209   0.49840326 0.00034056754    7310.3931    7475.3013    14785.694    237948.09 
   21000          210   0.49894687 -0.0040286471     7325.891    7483.4546    14809.346     236917.2 
   21100          211   0.49917055 0.0010217947    7258.8909    7486.8095      14745.7    235893.07 
   21200          212    0.4985669 -0.0019149477    7306.6734    7477.7556    14784.429    234876.33 
   21300          213   0.50199233 -0.00092837268    7329.7339    7529.1319    14858.866    233866.77 
   21400          214   0.49913704 0.0023765595    7292.2091    7486.3069    14778.516    232863.81 
   21500          215   0.49512299 0.0011052017    7245.3589    7426.1022    14671.461    231868.27 
   21600          216   0.49841218 -0.00067771057    7211.4329     7475.435    14686.868    230880.01 
   21700          217   0.49737608 0.0048309092    7269.1105    7459.8952    14729.006     229898.9 
   21800          218   0.50697241 -0.0050326983    7192.6543    7603.8258     14796.48    228924.22 
   21900          219   0.49579249 0.0018831701    7261.9035    7436.1437    14698.047    227956.21 
   22000          220   0.50133896 0.0022530518    7308.4199    7519.3323    14827.752    226994.62 
   22100          221   0.50442922 -0.0044728147     7289.307    7565.6816    14854.989    226039.65 
   22200          222    0.5100876 0.0052649642    7248.5031    7650.5489    14899.052    225091.71 
   22300          223   0.49963794 -0.00013303899    7253.4933    7493.8197    14747.313    224150.54 
   22400          224   0.50063657  0.002540555    7250.2583    7508.7976    14759.056     223215.4 
   22500          225   0.49762305 0.0017588003     7303.129    7463.5993    14766.728    222285.97 
   22600          226   0.49949713 0.00093194469    7243.7805    7491.7078    14735.488    221362.34 
   22700          227    0.4997354 0.0016433483    7314.7099    7495.2814    14809.991    220445.11 
   22800          228   0.49527842 0.0026957246    7230.1632    7428.4334    14658.597    219534.54 
   22900          229   0.49790778 -0.0029141388    7256.8798    7467.8698     14724.75    218631.28 
   23000          230   0.49947857 0.00076172691    7268.5561    7491.4293    14759.985    217733.53 
   23100          231   0.50229465 0.0030590749     7281.541    7533.6663    14815.207    216841.77 
   23200          232   0.50060937 0.0052105375    7305.2625    7508.3896    14813.652    215956.26 
   23300          233   0.49970716 -0.0087360811    7344.8987    7494.8578    14839.756    215076.61 
   23400          234    0.5024766 0.0036615158    7381.2701    7536.3952    14917.665    214201.78 
   23500          235   0.50216429 0.0018761045    7427.5045    7531.7111    14959.216    213333.38 
   23600          236   0.50064817 0.0028597293    7198.2682    7508.9715     14707.24    212470.85 
   23700          237   0.50023046 -0.002442072    7351.3519    7502.7066    14854.058    211614.05 
   23800          238    0.5044224 -0.001692118    7350.1356    7565.5793    14915.715    210762.68 
   23900          239   0.49794075 0.0029660724    7250.3644    7468.3644    14718.729    209916.48 
   24000          240   0.49861807 -0.0023531603    7257.7293    7478.5231    14736.252    209076.51 
   24100          241   0.49749364 0.0026169652    7301.7661    7461.6584    14763.424    208242.33 
   24200          242   0.49932471 -0.0042401981    7306.8022    7489.1217    14795.924    207413.09 
   24300          243   0.50194342 -0.00061630283    7239.0396    7528.3984    14767.438     206588.9 
   24400          244   0.50097659 0.0011379218    7208.6893    7513.8973    14722.587    205770.01 
   24500          245   0.49953534 -0.0018461396    7231.1291    7492.2809     14723.41    204955.65 
   24600          246   0.49490855 0.0016071217    7173.0182    7422.8859    14595.904    204146.69 
   24700          247   0.50291932 -0.0015549468    7307.9866    7543.0354    14851.022    203343.45 
   24800          248    0.4988232 -0.0012674059    7214.1992    7481.5998    14695.799    202545.08 
   24900          249   0.50196104 -0.00068646033    7358.5144    7528.6626    14887.177    201751.63 
   25000          250   0.49822108 -0.00056988511    7280.8559    7472.5688    14753.425    200963.17 
   25100          251   0.49907676 0.0015824124    7205.5117    7485.4028    14690.914    200180.33 
   25200          252   0.49844436 -0.0057041729    7331.9099    7475.9178    14807.828    199402.39 
   25300          253   0.50487714 0.0025102054    7316.2669    7572.3998    14888.667    198628.89 
   25400          254   0.50152558 0.00052583305    7339.4388    7522.1314     14861.57    197860.89 
   25500          255   0.49592997 0.0016607833    7287.5599    7438.2057    14725.766    197098.01 
   25600          256   0.50495681 0.0039221003    7227.8024    7573.5947    14801.397    196340.11 
   25700          257    0.4982451 0.00089833627    7266.9397    7472.9291    14739.869    195586.54 
   25800          258   0.50076939 0.00052948725    7266.7261    7510.7898    14777.516    194837.09 
   25900          259   0.50915153 -0.0034082635    7297.3203    7636.5091    14933.829    194092.58 
   26000          260   0.50341694 0.0092535018    7326.1258     7550.499    14876.625    193352.68 
   26100          261   0.50061337 -0.0044310426    7261.1645    7508.4496    14769.614    192617.41 
   26200          262   0.49610943 0.0064255839    7273.7549    7440.8973    14714.652     191886.1 
   26300          263   0.50148338 -0.004541102    7139.4912    7521.4985     14660.99    191160.23 
   26400          264   0.49823688  0.007731249    7243.4526    7472.8058    14716.258    190439.02 
   26500          265   0.49548208 -0.00030719435     7229.497    7431.4879    14660.985    189722.39 
   26600          266   0.49864636  0.002283548    7306.0831    7478.9475    14785.031       189010 
   26700          267   0.49794437 0.0017611978    7215.8514    7468.4187     14684.27    188301.88 
   26800          268   0.49722313 -0.0010437343    7199.9349    7457.6011    14657.536    187597.54 
   26900          269   0.49483311 0.0059868703    7259.1299    7421.7544    14680.884    186897.67 
   27000          270   0.49543142 -0.0044583723     7257.555    7430.7282    14688.283    186201.64 
   27100          271   0.49213318 0.0027732697    7358.9111    7381.2595    14740.171    185509.57 
   27200          272   0.49688489 -0.0015171935    7165.7714     7452.528    14618.299    184821.67 
   27300          273    0.4906566 -0.0042275793      7104.98     7359.113    14464.093    184137.78 
   27400          274   0.49255357 0.0027879086     7207.679    7387.5647    14595.244    183457.81 
   27500          275   0.49693892 -0.0021641576    7345.9852    7453.3384    14799.324    182783.04 
   27600          276   0.50307668 0.0042224446    7222.0806    7545.3956    14767.476    182112.07 
   27700          277   0.50125192 -6.1383309e-05    7331.5318    7518.0269    14849.559    181445.02 
   27800          278   0.49612472 0.0051379488     7244.739    7441.1266    14685.866     180781.5 
   27900          279   0.50609591  0.001393383    7273.0694    7590.6795    14863.749    180122.27 
   28000          280   0.50588292 0.00035528065    7363.9744     7587.485    14951.459    179467.36 
   28100          281    0.5005197 0.0032387161    7242.6773    7507.0448    14749.722    178815.75 
   28200          282     0.502339 -0.0021389665    7269.9296    7534.3314    14804.261    178167.87 
   28300          283   0.50030183 0.0039170418    7315.5753     7503.777    14819.352    177523.95 
   28400          284   0.50367343 -0.0029311534    7194.3603     7554.346    14748.706     176884.5 
   28500          285   0.49903674  0.004590239    7309.2032    7484.8026    14794.006    176248.49 
   28600          286   0.50109464 0.0044085865    7309.6886     7515.668    14825.357    175615.99 
   28700          287   0.49857083 0.00015157317    7344.3637    7477.8145    14822.178    174987.29 
   28800          288   0.50010356 0.0023324567      7211.02    7500.8032    14711.823    174362.53 
   28900          289   0.49668993 -0.0024209694    7334.0379    7449.6039    14783.642    173740.99 
   29000          290    0.5020718 0.0052049969     7260.038    7530.3239    14790.362    173122.57 
   29100          291   0.50117195 -0.0065449028    7337.8432    7516.8275    14854.671    172507.91 
   29200          292   0.50250216 0.0014361042     7299.993    7536.7787    14836.772    171897.02 
   29300          293   0.50506415  0.002253789    7571.6782    7575.2047    15146.883    171289.86 
   29400          294   0.50216726 -0.0033374134    7321.7492    7531.7557    14853.505     170686.6 
   29500          295   0.50597242  0.012045738    7341.4255    7588.8273    14930.253    170086.72 
   29600          296   0.50555797 -0.010664471    7306.7358    7582.6112    14889.347    169490.69 
   29700          297   0.50074162  0.006885206    7317.8427    7510.3732    14828.216    168897.31 
   29800          298   0.49548229 0.0016685446    7150.2149    7431.4912    14581.706    168307.57 
   29900          299   0.49736883 0.0014932569    7235.6447    7459.7863    14695.431    167720.62 
   30000          300   0.49731361 -0.0016660144    7163.0036    7458.9582    14621.962    167136.47 
   30100          301    0.4955159 -0.0036211986    7248.5178    7431.9952    14680.513    166555.83 
   30200          302   0.50009124 0.0057175158    7354.6566    7500.6185    14855.275    165978.45 
   30300          303   0.49843839 -0.0012568929    7210.6457    7475.8281    14686.474     165404.7 
   30400          304   0.49665008 0.0056265299    7280.5154    7449.0062    14729.522    164834.75 
   30500          305   0.50105664 0.0061230346     7215.922     7515.098     14731.02    164268.32 
   30600          306    0.5019819 0.0005907532    7280.4262    7528.9755    14809.402    163704.35 
   30700          307    0.5065759  0.000750078    7317.1864    7597.8786    14915.065    163142.87 
   30800          308   0.49806617 -0.0060682982    7358.0098    7470.2455    14828.255    162584.32 
   30900          309   0.49993261 0.0058971655    7293.9514    7498.2392    14792.191    162029.24 
   31000          310   0.49694737  -0.00529314    7193.5518    7453.4652    14647.017    161477.47 
   31100          311   0.49918046 0.0050830554    7195.3208    7486.9582    14682.279    160928.68 
   31200          312   0.49261336 -0.0078254186    7272.2191    7388.4614    14660.681    160383.21 
   31300          313   0.49189768 0.0017728504    7370.0422    7377.7273     14747.77    159840.23 
   31400          314   0.49830308 0.00024743485    7227.1989    7473.7988    14700.998    159300.55 
   31500          315   0.50199629 0.0042899499    7369.0303    7529.1913    14898.222    158763.78 
   31600          316   0.50017694 -0.0018411844    7219.0242    7501.9038    14720.928    158230.01 
   31700          317   0.49844441 0.0015400369    7301.7028    7475.9185    14777.621    157699.21 
   31800          318   0.49994766 0.0065228491    7229.1399    7498.4649    14727.605    157171.35 
   31900          319   0.49589377 0.0017611402    7275.8329    7437.6628    14713.496    156646.36 
   32000          320   0.49731415 0.0016992213    7232.0532    7458.9662    14691.019    156124.23 
   32100          321   0.50500166 0.0047760169    7274.5512    7574.2674    14848.819    155605.21 
   32200          322   0.50296089  0.004882215    7332.4001     7543.659    14876.059       155089 
   32300          323   0.50570549 0.0041928686     7255.383    7584.8237    14840.207    154575.17 
   32400          324   0.48858185 0.0069619018    7313.9187    7327.9949    14641.914    154064.08 
   32500          325   0.49868642 -0.010480819     7152.694    7479.5483    14632.242    153555.73 
   32600          326   0.49990916 0.0054101641    7163.4822    7497.8875     14661.37    153049.45 
   32700          327   0.49758751 0.0045191512    7232.8143    7463.0663    14695.881    152546.23 
   32800          328   0.49520419 0.0038863445    7322.1758      7427.32    14749.496    152045.73 
   32900          329   0.49545169 0.0024084765    7248.6304    7431.0321    14679.662    151547.84 
   33000          330   0.49972586 -0.0052880445    7390.1368    7495.1383    14885.275    151053.14 
   33100          331   0.50328239 0.0030718743    7267.4793    7548.4809     14815.96    150561.01 
   33200          332   0.49693654 0.0001821146    7413.0024    7453.3027    14866.305    150071.55 
   33300          333   0.51051033 0.0019503295    7225.5377    7656.8892    14882.427    149584.88 
   33400          334   0.50651253 0.0027406889    7235.9634    7596.9282    14832.892    149100.52 
   33500          335    0.5045172 0.0042995398    7280.3594    7567.0013    14847.361    148618.46 
   33600          336   0.50750033 -0.0048710629    7227.8723    7611.7438    14839.616     148138.9 
   33700          337   0.49869491 0.00020216855    7353.5988    7479.6756    14833.274    147661.74 
   33800          338   0.49866489 -0.0085156973    7344.6435    7479.2253    14823.869    147187.19 
   33900          339   0.50591256  0.008241725    7282.2706    7587.9295      14870.2    146714.47 
   34000          340   0.50326291 0.0022220706    7295.7393    7548.1888    14843.928    146244.55 
   34100          341   0.49476659 -0.0028476714    7352.1577    7420.7566    14772.914    145777.37 
   34200          342   0.50197186 0.0098264477    7252.1953     7528.825     14781.02    145312.43 
   34300          343   0.50152087 -0.0046283233    7294.1497    7522.0607     14816.21    144850.21 
   34400          344   0.49248026 -0.0011388493    7302.6038    7386.4651    14689.069    144389.75 
   34500          345   0.50308181 0.0059158593    7191.8977    7545.4725     14737.37    143931.66 
   34600          346   0.50011881 0.0063579305    7290.8883     7501.032     14791.92     143476.5 
   34700          347   0.50821465 -0.000711276    7263.3404    7622.4575    14885.798    143024.02 
   34800          348   0.49986383 0.0020190534    7355.8405    7497.2077    14853.048    142574.29 
   34900          349   0.50464223 -0.00022089674    7257.5647    7568.8766    14826.441    142126.58 
   35000          350    0.4972378 -0.0017183097    7344.7529    7457.8212    14802.574    141680.27 
   35100          351   0.50327229 -0.0035273978    7395.7571    7548.3294    14944.087    141236.35 
   35200          352   0.49733777 0.00061465787    7422.8542    7459.3206    14882.175    140794.42 
   35300          353   0.49821923 -0.00033513215    7400.2665    7472.5411    14872.808    140355.03 
   35400          354   0.50106401 0.0030002083    7357.7461    7515.2085    14872.955    139917.94 
   35500          355   0.50707134 0.0019105152    7295.1572    7605.3095    14900.467    139483.01 
   35600          356   0.50452758 0.0083923521    7390.2355     7567.157    14957.392    139050.49 
   35700          357   0.50467299 -0.0019709803    7353.0457    7569.3378    14922.383    138620.19 
   35800          358   0.50342451 0.0046501233    7281.2855    7550.6125    14831.898    138191.61 
   35900          359   0.50850582 0.0046358206    7348.4836    7626.8246    14975.308    137764.88 
   36000          360   0.51281159 -0.00085692357    7286.8699    7691.4046    14978.274    137340.79 
   36100          361   0.50385135 0.0062929944     7390.861    7557.0145    14947.876    136918.31 
   36200          362   0.50823467 0.0021743668    7209.4112    7622.7577    14832.169    136498.23 
   36300          363   0.49805303 -0.0063051027    7431.7226    7470.0484    14901.771    136080.14 
   36400          364   0.50419706 0.0065627981    7358.6212    7562.1996    14920.821    135664.38 
   36500          365   0.50544558 0.0067806752    7258.0745    7580.9255        14839    135250.74 
   36600          366   0.50442284 0.0057689409    7254.4534    7565.5859    14820.039    134839.06 
   36700          367   0.50330926 0.0045348302    7323.3273     7548.884    14872.211    134429.47 
   36800          368   0.49486949 -0.0079168672    7170.0719    7422.3001    14592.372    134022.04 
   36900          369   0.50055006  0.012395523    7233.2074    7507.5001    14740.708     133616.7 
   37000          370   0.50107401 -0.0053074213    7327.8474    7515.3585    14843.206    133213.64 
   37100          371   0.49281497 0.0085748908    7226.7454    7391.4853    14618.231    132811.97 
   37200          372   0.49132443 -0.0037309447      7305.67    7369.1295    14674.799    132412.41 
   37300          373   0.49726056 0.0014496208    7285.9652    7458.1625    14744.128    132014.86 
   37400          374    0.5029459  0.014247691    7321.5797     7543.434    14865.014    131618.54 
   37500          375   0.49961153 -0.001870698     7346.636    7493.4235    14840.059    131223.61 
   37600          376   0.49619394 -0.0053686355    7324.6903    7442.1648    14766.855    130830.49 
   37700          377   0.49881769  0.012305492    7247.5106    7481.5171    14729.028    130439.84 
   37800          378   0.49980943 -0.0065822464    7390.6536    7496.3918    14887.045    130052.16 
   37900          379   0.49875835 0.00067540655    7313.4174    7480.6272    14794.045    129665.84 
   38000          380   0.50703914 0.0045851921    7251.9248    7604.8265    14856.751     129281.5 
   38100          381   0.49684556 -0.0021666532    7261.6037    7451.9381    14713.542    128898.81 
   38200          382    0.4965834 -0.0017499541    7240.4311    7448.0061    14688.437    128517.86 
   38300          383    0.4971578  0.012623058    7273.9852    7456.6212    14730.606    128138.41 
   38400          384   0.49870238 -0.00061831923    7331.4279    7479.7877    14811.216    127761.54 
   38500          385   0.50027382 0.0025218387    7364.7139    7503.3568    14868.071    127386.64 
   38600          386   0.50252286 0.0056279043     7330.886     7537.089    14867.975     127013.4 
   38700          387   0.51063746 -0.0024049287    7267.6103    7658.7959    14926.406    126642.08 
   38800          388   0.49308131 0.0053874061     7352.682    7395.4801    14748.162    126272.59 
   38900          389   0.50132435 0.0022077007    7265.4546    7519.1132    14784.568    125904.88 
   39000          390   0.50239893 0.0030596511     7287.254    7535.2303    14822.484    125538.89 
   39100          391   0.50363852 0.0028060385    7160.7768    7553.8224    14714.599    125174.58 
   39200          392   0.49946063 -0.0054008027    7340.0927    7491.1603    14831.253     124811.6 
   39300          393   0.50267797 0.0080892633    7345.7114    7539.4156    14885.127     124449.9 
   39400          394   0.50380136 -0.0036368394    7274.1883    7556.2647    14830.453    124089.51 
   39500          395    0.4974849 0.0061883457    7270.3359    7461.5273    14731.863    123730.69 
   39600          396   0.50021009  0.000437437    7284.1405    7502.4011    14786.542    123373.72 
   39700          397   0.50118763  0.004575645    7300.9176    7517.0626     14817.98    123018.63 
   39800          398   0.51052618 0.0039632546    7257.6122    7657.1269    14914.739     122665.7 
   39900          399   0.50903928 0.0063322668    7368.5957    7634.8257    15003.421    122314.26 
   40000          400   0.50400908 0.0015722341    7344.0119    7559.3802    14903.392    121964.67 
   40100          401   0.49920464 0.0073362257    7349.7789    7487.3208      14837.1    121616.68 
   40200          402   0.50190597 -0.00078036826    7310.4685    7527.8367    14838.305    121270.37 
   40300          403   0.49905649 0.0027368313    7293.8148    7485.0988    14778.914    120925.71 
   40400          404   0.49458916 0.0012841465    7304.1105    7418.0954    14722.206    120582.77 
   40500          405   0.49811587 0.0032528809    7213.6011    7470.9909    14684.592    120241.19 
   40600          406   0.49643078 0.0058896907    7293.0397    7445.7171    14738.757    119901.29 
   40700          407   0.50182997 0.0079116657    7135.6445    7526.6968    14662.341    119563.06 
   40800          408   0.49350124  -0.01028721    7309.7862    7401.7783    14711.565    119226.07 
   40900          409   0.50389424 0.0032448953    7279.2275    7557.6578    14836.885    118890.11 
   41000          410    0.5053389 0.0053387742    7266.6115    7579.3256    14845.937    118555.86 
   41100          411     0.498852 -0.010103115    7250.1122    7482.0317    14732.144    118223.48 
   41200          412   0.49400694 0.0063489147    7236.2655    7409.3632    14645.629    117892.34 
   41300          413   0.49678443 0.0029291931    7295.4358    7451.0213    14746.457    117562.63 
   41400          414   0.49915262 0.0099070452    7268.8924    7486.5405    14755.433    117234.18 
   41500          415   0.49751292 -0.0033059271    7256.6537    7461.9476    14718.601     116907.4 
   41600          416   0.49971937 0.0089074274    7237.4981     7495.041    14732.539    116582.07 
   41700          417   0.50321709 -0.0060177754    7232.6619    7547.5015    14780.163    116258.72 
   41800          418   0.49975013  0.012061885    7388.3172    7495.5023     14883.82    115936.61 
   41900          419   0.50144062 -0.00084533942    7310.3468    7520.8572    14831.204    115616.25 
   42000          420   0.50252333 0.0086063853    7440.2275    7537.0962    14977.324    115296.96 
   42100          421   0.49667416 -0.001983593    7390.2604    7449.3674    14839.628    114979.49 
   42200          422   0.49632842 0.0027254273     7423.604    7444.1817    14867.786    114663.64 
   42300          423   0.50028036 0.0099157007    7418.9378     7503.455    14922.393    114348.97 
   42400          424   0.50210221 -0.00076293728    7330.9073      7530.78    14861.687    114035.36 
   42500          425   0.49949808 0.0044044585    7387.6605    7491.7219    14879.382    113722.71 
   42600          426   0.50783631 -0.0015406046    7211.7751    7616.7829    14828.558     113411.9 
   42700          427   0.50172973 -0.00084475524     7294.117    7525.1933     14819.31    113102.45 
   42800          428   0.50026013 0.0058548528    7362.8461    7503.1516    14865.998    112794.57 
   42900          429   0.49789055 0.0049490446    7294.7323    7467.6114    14762.344    112488.09 
   43000          430   0.50193141 0.0045434979    7263.5155    7528.2182    14791.734    112183.13 
   43100          431   0.49502116 0.0049944329    7274.0947    7424.5749     14698.67    111879.44 
   43200          432   0.50390381 0.0031510048    7303.3073    7557.8013    14861.109     111576.7 
   43300          433   0.50241423  0.010004616    7346.3473    7535.4598    14881.807    111275.56 
   43400          434   0.50354427 0.0062729728     7449.981    7552.4087     15002.39    110975.64 
   43500          435   0.50453282 -0.0057116219    7326.8615    7567.2355    14894.097    110676.82 
   43600          436   0.49870246   0.01272452    7385.0539    7479.7888    14864.843    110378.99 
   43700          437   0.50210074 0.00037889087    7405.3273    7530.7579    14936.085    110082.47 
   43800          438   0.50344875 -0.0012251762    7346.3529     7550.976    14897.329    109787.41 
   43900          439   0.49643163 0.0083455575    7250.5275    7445.7298    14696.257    109493.65 
   44000          440   0.50401777 -0.0081245384    7259.7911    7559.5106    14819.302    109200.89 
   44100          441   0.49887753 0.0079409447    7323.6289    7482.4146    14806.043    108909.76 
   44200          442   0.50124775 0.0022236699     7369.053    7517.9643    14887.017    108620.37 
   44300          443   0.49877832 0.0006597529     7267.831    7480.9266    14748.758    108332.07 
   44400          444   0.50460324 0.0029447388    7376.6053    7568.2917    14944.897    108045.06 
   44500          445   0.50686279 0.0093540238    7157.9667    7602.1815    14760.148    107759.13 
   44600          446   0.49829599 -0.0063921996    7347.0568    7473.6924    14820.749    107474.67 
   44700          447   0.49933142  0.013733135    7241.0225    7489.2224    14730.245    107191.02 
   44800          448   0.50036379 0.0031670829     7438.019    7504.7064    14942.725    106908.63 
   44900          449   0.50511215 0.0012280212     7305.798    7575.9246    14881.723    106627.21 
   45000          450   0.50190441  0.011956505    7280.9196    7527.8133    14808.733    106347.19 
   45100          451   0.50159419 -0.00078895545     7252.524    7523.1605    14775.685    106068.17 
   45200          452   0.50394339   0.01778992    7282.8286    7558.3949    14841.223    105790.23 
   45300          453    0.5035497 -0.0014617613    7300.7637    7552.4902    14853.254    105513.54 
   45400          454    0.5043645 0.0056016575    7365.1056    7564.7109    14929.817    105237.98 
   45500          455   0.50069419  0.003259721    7391.0301    7509.6618    14900.692    104963.59 
   45600          456   0.50895165 -0.0015203798    7402.5416    7633.5112    15036.053    104690.36 
   45700          457   0.49725282 -0.0008307564    7250.8256    7458.0464    14708.872    104418.33 
   45800          458    0.5000294 0.0042226516    7314.2584    7499.6909    14813.949    104147.78 
   45900          459   0.51078488 0.0014290903    7247.0059     7661.007    14908.013    103878.75 
   46000          460   0.50111071 0.0064244078    7241.3785     7515.909    14757.287    103610.77 
   46100          461   0.49243417 0.0089840421    7329.4668    7385.7739    14715.241    103343.88 
   46200          462   0.49614958  0.002483158    7291.7544    7441.4995    14733.254       103078 
   46300          463   0.49845804 0.0014142793    7286.3321     7476.123    14762.455    102812.76 
   46400          464   0.50109634 0.00017072066     7350.328    7515.6935    14866.021    102548.76 
   46500          465   0.50645553 0.0072077343    7452.0908    7596.0732    15048.164     102285.7 
   46600          466   0.50008004 -0.0010939421    7376.1078    7500.4505    14876.558     102023.9 
   46700          467   0.50933035 -0.0020510761    7393.8537    7639.1913    15033.045    101763.29 
   46800          468   0.50267924 -0.0015016361    7428.5875    7539.4346    14968.022    101503.63 
   46900          469   0.50150925 0.0079115767    7292.4314    7521.8865    14814.318    101244.73 
   47000          470   0.49853113 -0.0015223847    7334.3312    7477.2192     14811.55    100987.25 
   47100          471   0.49970738 0.0035394139    7276.7032    7494.8612    14771.564    100730.93 
   47200          472   0.50013696 0.0065395531    7309.6604    7501.3042    14810.965    100475.98 
   47300          473     0.491551   0.02098931    7347.1325    7372.5277     14719.66    100222.39 
   47400          474   0.49689287 -0.0094429574    7298.4483    7452.6477    14751.096      99969.8 
   47500          475   0.49990257  0.007625416      7284.62    7497.7887    14782.409    99717.827 
   47600          476   0.49854504 0.0091948788    7212.2104    7477.4278    14689.638    99466.799 
   47700          477   0.49788365 -0.0005853267    7263.3372    7467.5079    14730.845    99216.971 
   47800          478   0.50197952 -0.0034694656    7281.2644    7528.9398    14810.204     98967.86 
   47900          479   0.50172939 0.0082014729    7350.8641    7525.1883    14876.052    98719.853 
   48000          480   0.50854669 0.0064704844    7353.4983    7627.4375    14980.936    98472.698 
   48100          481    0.5064124 0.0037188932    7361.7311    7595.4264    14957.157    98226.351 
   48200          482   0.50312508  0.012803637    7369.8404    7546.1215    14915.962    97981.203 
   48300          483   0.50234473 -0.00059433646    7258.3196    7534.4174    14792.737    97737.396 
   48400          484   0.50722877 0.0018811151    7234.5961    7607.6707    14842.267    97494.528 
   48500          485    0.4994536 0.0086854237    7210.2842    7491.0548    14701.339    97252.626 
   48600          486   0.49905332 0.0058687716    7292.1229    7485.0512    14777.174    97011.468 
   48700          487   0.50738681 0.0040229907    7269.6688     7610.041     14879.71    96771.185 
   48800          488   0.50457488 0.0061014172    7265.4512    7567.8663    14833.317    96531.859 
   48900          489   0.50606913 0.0093360811     7339.635    7590.2778    14929.913    96293.594 
   49000          490   0.50032809 -0.013036614    7372.4165    7504.1708    14876.587    96056.123 
   49100          491   0.49885937  0.018142051    7430.9179    7482.1422     14913.06    95819.675 
   49200          492    0.4995246 2.3535903e-06    7369.1073    7492.1197    14861.227    95584.749 
   49300          493    0.5022491 -0.0043165502    7190.4678    7532.9832    14723.451     95350.51 
   49400          494   0.49381715  0.020424957    7243.8001    7406.5165    14650.317    95117.051 
   49500          495   0.49991969 -0.014953661    7288.3815    7498.0455    14786.427    94884.291 
   49600          496   0.49807652  0.014702423     7304.583    7470.4007    14774.984     94652.52 
   49700          497   0.49866925 -0.00076889434    7275.3324    7479.2907    14754.623    94421.776 
   49800          498   0.49662644 0.0045502701    7303.3621    7448.6516    14752.014    94191.888 
   49900          499   0.50065638  0.010418968    7321.3735    7509.0948    14830.468    93963.137 
   50000          500   0.50132776 0.0001878486    7355.5325    7519.1645    14874.697    93735.129 
Loop time of 97.7931 on 1 procs for 50000 steps with 10000 atoms

Performance: 441749.066 tau/day, 511.284 timesteps/s
97.8% CPU use with 1 MPI tasks x 1 OpenMP threads

MPI task timing breakdown:
Section |  min time  |  avg time  |  max time  |%varavg| %total
---------------------------------------------------------------
Pair    | 4.0104     | 4.0104     | 4.0104     |   0.0 |  4.10
Bond    | 35.587     | 35.587     | 35.587     |   0.0 | 36.39
Neigh   | 19.455     | 19.455     | 19.455     |   0.0 | 19.89
Comm    | 1.9538     | 1.9538     | 1.9538     |   0.0 |  2.00
Output  | 2.6473     | 2.6473     | 2.6473     |   0.0 |  2.71
Modify  | 32.221     | 32.221     | 32.221     |   0.0 | 32.95
Other   |            | 1.919      |            |       |  1.96

Nlocal:    10000 ave 10000 max 10000 min
Histogram: 1 0 0 0 0 0 0 0 0 0
Nghost:    2501 ave 2501 max 2501 min
Histogram: 1 0 0 0 0 0 0 0 0 0
Neighs:    2441 ave 2441 max 2441 min
Histogram: 1 0 0 0 0 0 0 0 0 0

Total # of neighbors = 2441
Ave neighs/atom = 0.2441
Ave special neighs/atom = 4.8
Neighbor list builds = 6417
Dangerous builds = 0

unfix 2
unfix 3
fix 4 all nve
fix 5 all langevin ${T} ${T} 1 123456
fix 5 all langevin 0.5 ${T} 1 123456
fix 5 all langevin 0.5 0.5 1 123456
fix recen1 all recenter INIT INIT INIT


# RUN
run ${run_steps}
run 5000
Per MPI rank memory allocation (min/avg/max) = 20.01 | 20.01 | 20.01 Mbytes
Step Time Temp Press PotEng KinEng TotEng Volume 
   50000          500   0.50132776 0.0001878486    7355.5325    7519.1645    14874.697    93735.129 
   50100          501   0.50367057 0.0050865576    7249.7604     7554.303    14804.063    93735.129 
   50200          502   0.49470128 0.0028289953     7349.316    7419.7771    14769.093    93735.129 
   50300          503   0.50206628 0.0037003922    7276.6964    7530.2411    14806.938    93735.129 
   50400          504   0.50202449 0.0020887713    7340.4243    7529.6143    14870.039    93735.129 
   50500          505   0.49777034  0.015730627    7261.9749    7465.8085    14727.783    93735.129 
   50600          506   0.49417994 -0.0069462283    7327.8818    7411.9578     14739.84    93735.129 
   50700          507   0.49431864 0.0089979526     7406.848    7414.0381    14820.886    93735.129 
   50800          508   0.50797218 0.0060937698    7284.9047    7618.8207    14903.725    93735.129 
   50900          509   0.50202894 0.0076654305    7263.7719    7529.6811    14793.453    93735.129 
   51000          510   0.50494287   0.02464685    7306.0688    7573.3856    14879.454    93735.129 
   51100          511   0.50468624 -0.000140047    7345.1428    7569.5366    14914.679    93735.129 
   51200          512   0.49763651  0.017181925    7374.5634    7463.8012    14838.365    93735.129 
   51300          513   0.49732214 -0.010351512    7451.4999    7459.0862    14910.586    93735.129 
   51400          514   0.49493319  0.011286514    7337.3633    7423.2555    14760.619    93735.129 
   51500          515   0.50328714 0.0074175571    7200.6249    7548.5521    14749.177    93735.129 
   51600          516   0.50176153 0.0069611401    7272.4182    7525.6703    14798.088    93735.129 
   51700          517   0.49897028 -6.2575726e-05    7304.5715    7483.8057    14788.377    93735.129 
   51800          518   0.50276184  0.011025007    7255.9115    7540.6734    14796.585    93735.129 
   51900          519   0.50058785 0.0074879805    7335.8702    7508.0669    14843.937    93735.129 
   52000          520   0.50431178 0.0087002537    7243.2093    7563.9202    14807.129    93735.129 
   52100          521   0.49941522 0.0049869345    7358.6331    7490.4791    14849.112    93735.129 
   52200          522   0.50420522 0.00089910366    7321.6751    7562.3219    14883.997    93735.129 
   52300          523   0.50213672 0.0088417755    7207.1498    7531.2977    14738.447    93735.129 
   52400          524   0.50086159 -0.0033742653    7277.1712    7512.1725    14789.344    93735.129 
   52500          525   0.50093779 0.0073359573    7236.5206    7513.3155    14749.836    93735.129 
   52600          526   0.50130242 0.0023523344    7281.6398    7518.7843    14800.424    93735.129 
   52700          527   0.49436663 0.0026269503    7384.8625    7414.7579     14799.62    93735.129 
   52800          528   0.49837395 0.0027493275    7272.2278    7474.8617    14747.089    93735.129 
   52900          529   0.50335059 0.0067466187    7277.8745    7549.5038    14827.378    93735.129 
   53000          530   0.50090193 0.0099837186    7226.8716    7512.7776    14739.649    93735.129 
   53100          531   0.49989904 0.00061846071    7223.4049    7497.7357    14721.141    93735.129 
   53200          532    0.4979523   0.01050021     7253.382    7468.5376     14721.92    93735.129 
   53300          533   0.50056327  0.005200381    7245.3502    7507.6982    14753.048    93735.129 
   53400          534   0.49613344 -0.0033027463    7216.1225    7441.2574     14657.38    93735.129 
   53500          535   0.49638417  0.019346921    7271.0413    7445.0179    14716.059    93735.129 
   53600          536   0.49994347 -0.00036738002     7205.097    7498.4021    14703.499    93735.129 
   53700          537    0.4959439 0.0017624079     7227.444    7438.4146    14665.859    93735.129 
   53800          538   0.49535982 0.0085416717    7248.7944    7429.6543    14678.449    93735.129 
   53900          539   0.49221685 0.0063974977    7291.2622    7382.5144    14673.777    93735.129 
   54000          540   0.49687853 0.0039136111    7286.2895    7452.4326    14738.722    93735.129 
   54100          541   0.49795663 -0.0018503275    7234.7601    7468.6025    14703.363    93735.129 
   54200          542   0.48904738  0.016108433    7237.2708    7334.9771    14572.248    93735.129 
   54300          543   0.49194252 -0.0030836029    7270.3276    7378.3999    14648.727    93735.129 
   54400          544   0.50384025  0.028910951    7294.4675    7556.8479    14851.315    93735.129 
   54500          545   0.49920698  -0.00465639    7318.2819    7487.3559    14805.638    93735.129 
   54600          546    0.4951835  0.015068209    7340.4051    7427.0097    14767.415    93735.129 
   54700          547   0.49998464 -0.0026322742      7242.78    7499.0196      14741.8    93735.129 
   54800          548   0.49587126 0.0054612613    7320.8352    7437.3252     14758.16    93735.129 
   54900          549   0.50160467 -0.0028168993    7320.0371    7523.3177    14843.355    93735.129 
   55000          550   0.50572201  0.014747852    7369.5512    7585.0716    14954.623    93735.129 
Loop time of 7.87969 on 1 procs for 5000 steps with 10000 atoms

Performance: 548244.790 tau/day, 634.543 timesteps/s
98.4% CPU use with 1 MPI tasks x 1 OpenMP threads

MPI task timing breakdown:
Section |  min time  |  avg time  |  max time  |%varavg| %total
---------------------------------------------------------------
Pair    | 0.31846    | 0.31846    | 0.31846    |   0.0 |  4.04
Bond    | 2.459      | 2.459      | 2.459      |   0.0 | 31.21
Neigh   | 1.6673     | 1.6673     | 1.6673     |   0.0 | 21.16
Comm    | 0.25914    | 0.25914    | 0.25914    |   0.0 |  3.29
Output  | 0.25923    | 0.25923    | 0.25923    |   0.0 |  3.29
Modify  | 2.7232     | 2.7232     | 2.7232     |   0.0 | 34.56
Other   |            | 0.1934     |            |       |  2.45

Nlocal:    10000 ave 10000 max 10000 min
Histogram: 1 0 0 0 0 0 0 0 0 0
Nghost:    2491 ave 2491 max 2491 min
Histogram: 1 0 0 0 0 0 0 0 0 0
Neighs:    2531 ave 2531 max 2531 min
Histogram: 1 0 0 0 0 0 0 0 0 0

Total # of neighbors = 2531
Ave neighs/atom = 0.2531
Ave special neighs/atom = 4.8
Neighbor list builds = 619
Dangerous builds = 0

# SHELL
shell copy output.dump        output_T_${T}_box_${box}_run_${run_tau}.dump
shell copy output.dump        output_T_0.5_box_${box}_run_${run_tau}.dump
shell copy output.dump        output_T_0.5_box_100_run_${run_tau}.dump
shell copy output.dump        output_T_0.5_box_100_run_50.dump
shell echo> T_${T}.done
shell echo> T_0.5.done
#shell commands modified for use in windows

#This section  of codes allows looping over the list of T values
clear
OMP_NUM_THREADS environment is not set. Defaulting to 1 thread. (../comm.cpp:94)
  using 1 OpenMP thread(s) per MPI task
next mix_steps
jump in.run
# VARIABLES
variable T         equal  0.5 # 0.1 0.36 0.70  #Can loop over this variable
variable num       equal  1 #labelling results only
variable N         equal  1000
variable box       equal  100 # cubic box of volume 'box'
variable t_step    equal  0.01 #originally 0.005
variable mix_steps index  50000 100000 150000 200000 250000 300000
variable mix_tau   equal  ${t_step}*${mix_steps}
variable mix_tau   equal  0.01*${mix_steps}
variable mix_tau   equal  0.01*100000
variable run_steps equal  5000 # steps to run simulation in order to reach steady state
variable run_tau   equal  ${t_step}*${run_steps} # this is the time in LJ units
variable run_tau   equal  0.01*${run_steps} 
variable run_tau   equal  0.01*5000 
#use index to loop over variable

# PARAMETERS
units lj
atom_style molecular
neighbor 0.4 bin
neigh_modify every 1 delay 1 check yes
comm_modify vel yes
comm_modify cutoff 1.9
#KG added to remove "Communication cutoff 1.52 is shorter than a bond length
#based estimate of 1.87. This may lead to errors" warning.

# READ
read_data input_data_nunchucks_${N}_${box}.file
read_data input_data_nunchucks_1000_${box}.file
read_data input_data_nunchucks_1000_100.file
  orthogonal box = (-50 -50 -50) to (50 50 50)
  1 by 1 by 1 MPI processor grid
  reading atoms ...
  10000 atoms
  scanning bonds ...
  1 = max bonds/atom
  scanning angles ...
  1 = max angles/atom
  reading bonds ...
  9000 bonds
  reading angles ...
  8000 angles
  2 = max # of 1-2 neighbors
  2 = max # of 1-3 neighbors
  4 = max # of 1-4 neighbors
  6 = max # of special neighbors
  special bonds CPU = 0.0118961 secs
  read_data CPU = 0.089853 secs

#  BONDS
bond_style harmonic
special_bonds lj 0 1 1
  2 = max # of 1-2 neighbors
  2 = max # of 1-3 neighbors
  4 = max # of 1-4 neighbors
  6 = max # of special neighbors
  special bonds CPU = 0.0121489 secs
bond_coeff * 500.0 0.98  # the wildcard (*) means to have the same for all bond types.
#0.98 is the distance between ball centres

# ANGLES
angle_style harmonic
angle_coeff * 500.0  180

# PAIR lj/cut --with interactions, to steady state
pair_style lj/cut 1.0
pair_modify shift yes
pair_coeff * * 1  1.0  1.12
#1.12 is cut-off for potential

# THERMAL
timestep ${t_step}
timestep 0.01
thermo   100
thermo_style custom step time temp press pe ke etotal vol
thermo_modify norm no
reset_timestep 0

# DUMP OUTPUT
dump  1  all custom 1000 output.dump id mol type x y z vx vy vz
dump_modify 1 sort id


# FIX
fix 2 all nph iso 0.5 0.5 100
fix 3 all langevin 0.5 0.5 1 123456
run ${mix_steps}
run 100000
Neighbor list info ...
  update every 1 steps, delay 1 steps, check yes
  max neighbors/atom: 2000, page size: 100000
  master list distance cutoff = 1.52
  ghost atom cutoff = 1.9
  binsize = 0.76, bins = 132 132 132
  1 neighbor lists, perpetual/occasional/extra = 1 0 0
  (1) pair lj/cut, perpetual
      attributes: half, newton on
      pair build: half/bin/newton
      stencil: half/bin/3d/newton
      bin: standard
Per MPI rank memory allocation (min/avg/max) = 19.93 | 19.93 | 19.93 Mbytes
Step Time Temp Press PotEng KinEng TotEng Volume 
       0            0            0 -1.5395349e-16 1.5065726e-10            0 1.5065726e-10 1000000 
     100            1   0.33580281 0.00028694277    4553.1712    5036.5384    9589.7096    992661.24 
     200            2   0.43872276 -0.00035040521    6289.7958    6580.1833    12869.979    975772.86 
     300            3   0.47583143 0.00096501823    6921.4839    7136.7577    14058.242    960492.84 
     400            4   0.49008083 0.00014416013    7124.5132    7350.4773     14474.99    945601.01 
     500            5   0.49630676 -0.00094428652    7204.9122     7443.857    14648.769    931494.42 
     600            6   0.50123927 -0.00012136251    7291.7086    7517.8372    14809.546    918952.24 
     700            7     0.504227 -0.00056174323    7374.9179    7562.6487    14937.567    907246.21 
     800            8    0.4995627 -0.00043931854    7377.5177    7492.6911    14870.209    896027.57 
     900            9   0.49738859 0.0010897269    7242.4777    7460.0827     14702.56    885219.31 
    1000           10   0.50195857 0.00039892305    7269.3591    7528.6256    14797.985    874770.13 
    1100           11   0.50207012 -4.2445322e-05    7302.4615    7530.2987     14832.76    864639.06 
    1200           12   0.50966437 0.00044035523    7260.1451    7644.2011    14904.346    854796.61 
    1300           13   0.49566762 0.00063089974    7184.2572    7434.2707    14618.528    845216.08 
    1400           14   0.49632607 -0.0015152597    7276.4288    7444.1465    14720.575    835884.15 
    1500           15    0.5007545 0.0014066931    7343.6951    7510.5664    14854.261    826781.18 
    1600           16   0.50107026 8.5233569e-05    7254.9655    7515.3022    14770.268    817893.17 
    1700           17   0.50469402 0.00018060946    7228.7773    7569.6532     14798.43    809207.92 
    1800           18   0.50421963 0.00040642525    7339.1749    7562.5381    14901.713    800717.41 
    1900           19   0.50306732 -0.0011974304    7197.5719    7545.2551    14742.827    792411.34 
    2000           20   0.50162182 -0.00014229657    7259.5067    7523.5749    14783.082    784283.19 
    2100           21   0.49659784 0.00038744842    7304.5854    7448.2227    14752.808    776323.97 
    2200           22   0.50378369 -0.00012622305    7223.4671    7555.9996    14779.467    768522.77 
    2300           23   0.49696765 -0.00012125321    7285.5134    7453.7692    14739.283    760876.69 
    2400           24   0.50414413 0.00046352044    7398.0512    7561.4058    14959.457    753381.11 
    2500           25   0.49944936 0.00016641347    7215.8499    7490.9913    14706.841    746029.31 
    2600           26   0.49316603  0.000342564    7335.7177    7396.7506    14732.468     738816.5 
    2700           27   0.48763845 0.00067162432    7221.9931    7313.8453    14535.838    731735.32 
    2800           28   0.49260628 -0.00068702681    7144.3122    7388.3553    14532.667    724782.45 
    2900           29   0.49922725 0.0015678743    7256.5348    7487.6599    14744.195    717955.06 
    3000           30   0.49727991 -0.0028988181    7300.7334    7458.4527    14759.186    711249.49 
    3100           31   0.49560364 0.0008765379    7287.0609    7433.3112    14720.372     704659.7 
    3200           32   0.49949155 0.00071149455    7268.3367     7491.624    14759.961    698183.48 
    3300           33   0.50393265 -0.0018086663    7161.3407    7558.2339    14719.575    691818.15 
    3400           34   0.49592529 0.0012572301    7261.0745    7438.1355     14699.21    685560.65 
    3500           35   0.49833351 0.00080907286    7214.3313    7474.2552    14688.586    679405.49 
    3600           36   0.49600524 -0.0009646353    7252.1863    7439.3345    14691.521    673351.89 
    3700           37    0.4982129 0.0010751518    7332.8445    7472.4461    14805.291    667395.49 
    3800           38   0.50371342 -0.0023955751    7231.5391    7554.9457    14786.485    661534.96 
    3900           39   0.49655512 0.00037957598    7235.0788     7447.582    14682.661    655766.85 
    4000           40   0.50056365 0.00081725454    7385.1267    7507.7039    14892.831    650090.26 
    4100           41   0.50807835 0.00050338094    7247.3147    7620.4131    14867.728    644504.36 
    4200           42   0.50296926 -0.00013103509    7315.5613    7543.7844    14859.346    639002.84 
    4300           43   0.49959309 0.00087679472    7316.2793     7493.147    14809.426    633582.88 
    4400           44   0.50148197 -0.0010358379    7334.0742    7521.4773    14855.552    628246.84 
    4500           45   0.50135214 2.0840019e-06    7181.7381    7519.5301    14701.268    622991.04 
    4600           46    0.4936417 -0.0005153623    7290.7957     7403.885    14694.681    617812.58 
    4700           47   0.50100961 0.0026206737    7192.1204    7514.3926    14706.513     612708.6 
    4800           48   0.50768472 -0.0021022308     7197.972    7614.5093    14812.481    607681.67 
    4900           49   0.50391308 0.0016136554    7153.2908    7557.9404    14711.231     602727.5 
    5000           50   0.50893186 0.00024448149     7292.191    7633.2145    14925.405     597845.1 
    5100           51   0.49754117 0.00092880854    7297.4491    7462.3713     14759.82    593030.48 
    5200           52   0.50045901 0.0015009643    7194.4255    7506.1345     14700.56    588284.95 
    5300           53   0.50456631 -0.0025118052     7216.279    7567.7378    14784.017    583604.82 
    5400           54   0.49381901 0.0012179272     7285.166    7406.5444     14691.71    578989.08 
    5500           55   0.49679857 -0.0020568053    7231.3821    7451.2334    14682.615    574438.26 
    5600           56   0.50031718 0.00027213354    7279.1964    7504.0072    14783.204    569948.71 
    5700           57   0.50063254 0.00026365676    7277.8117    7508.7371    14786.549    565519.95 
    5800           58   0.50728806 -0.0014351092    7153.2199      7608.56     14761.78    561151.65 
    5900           59   0.49757144 -0.0012222691    7314.6088    7462.8252    14777.434    556840.46 
    6000           60   0.50430561 -0.00041466003    7227.9773    7563.8277    14791.805    552586.63 
    6100           61   0.49734138 -0.00033316502    7213.3729    7459.3747    14672.748    548390.14 
    6200           62   0.50606607  0.001660643    7236.4508     7590.232    14826.683     544247.4 
    6300           63    0.4988633 -0.001989458    7437.8187    7482.2012     14920.02    540161.17 
    6400           64   0.50822233 0.0026226151    7247.5727    7622.5727    14870.145    536126.62 
    6500           65    0.4991909 -0.0012135584    7198.3997    7487.1148    14685.514    532142.82 
    6600           66   0.49850121 -0.00027818885    7280.5006    7476.7704    14757.271    528210.28 
    6700           67   0.50239024 0.0013596555    7375.0309       7535.1    14910.131    524327.64 
    6800           68   0.49855711 0.0016252681    7351.8957    7477.6089    14829.505    520493.26 
    6900           69   0.50213321 -0.001930152    7396.1121    7531.2449    14927.357    516707.63 
    7000           70   0.50523294 0.0020272046    7349.3166    7577.7362    14927.053    512969.73 
    7100           71   0.50312227 -0.0016864761    7356.6251    7546.0793    14902.704    509277.69 
    7200           72   0.50448212 -0.0010052711    7281.8081     7566.475    14848.283    505629.41 
    7300           73    0.5010573 0.00070793899    7377.1788     7515.108    14892.287    502025.87 
    7400           74   0.49892109 -0.00058221538    7388.5265    7483.0679    14871.594    498465.93 
    7500           75   0.50094126 -0.00043569031    7232.6635    7513.3675    14746.031    494949.88 
    7600           76   0.49816734 0.0020548798    7286.1828    7471.7628    14757.946    491475.38 
    7700           77    0.4993974 0.00047695982    7347.1361     7490.212    14837.348    488042.66 
    7800           78   0.49954852 0.00037045517    7378.9063    7492.4785    14871.385    484650.35 
    7900           79   0.50305542 -0.00013201944    7330.4177    7545.0767    14875.494    481298.56 
    8000           80   0.49866052 -0.00056549248    7337.4267    7479.1598    14816.587    477985.89 
    8100           81   0.50129327 0.00090505895    7361.2064    7518.6471    14879.854    474711.66 
    8200           82   0.50236305 -0.00036101619    7251.4193    7534.6922    14786.111    471474.49 
    8300           83   0.49470321 -0.00028858166    7210.0678    7419.8061    14629.874    468274.82 
    8400           84   0.50714749 0.0016093474    7281.5826    7606.4516    14888.034    465113.27 
    8500           85   0.49911797 5.4855463e-05    7367.0282    7486.0208    14853.049    461987.43 
    8600           86   0.49845924 0.0026029079    7253.7189    7476.1409     14729.86    458895.73 
    8700           87   0.50707979 -0.00099489256    7294.3899    7605.4362    14899.826    455838.92 
    8800           88   0.50889078 0.00051053894    7219.6356    7632.5984    14852.234    452815.73 
    8900           89   0.49663941 -0.00086743778     7369.125    7448.8462    14817.971    449826.86 
    9000           90   0.49818574 0.00057207571    7302.6775    7472.0389    14774.716    446872.42 
    9100           91   0.49581989 0.0014533876    7294.1445    7436.5546    14730.699    443950.35 
    9200           92   0.49849288 -0.001365117    7229.7014    7476.6455    14706.347    441060.61 
    9300           93   0.50670506 0.0006928775    7205.3911    7599.8159    14805.207    438202.37 
    9400           94   0.50650627 -0.00019659694     7279.134    7596.8342    14875.968    435375.89 
    9500           95   0.50354843 -0.001066512    7364.1956    7552.4711    14916.667    432578.94 
    9600           96   0.50124725 -0.00015699322    7276.9264    7517.9569    14794.883    429812.06 
    9700           97   0.50291797 0.00071858366    7164.4143    7543.0152    14707.429    427074.43 
    9800           98   0.50350584 -0.00068448137    7332.8438    7551.8323    14884.676    424365.84 
    9900           99   0.50270508 -0.00029518823    7378.0665    7539.8222    14917.889    421686.28 
   10000          100     0.495094 -7.180882e-05    7361.8536    7425.6674    14787.521    419035.57 
   10100          101   0.49450554 3.421856e-05    7270.1583    7416.8414        14687    416411.96 
   10200          102   0.49268852 -0.00053759098    7336.9855    7389.5887    14726.574    413816.32 
   10300          103   0.49628078 0.0005356918    7194.7194    7443.4673    14638.187    411247.45 
   10400          104   0.50128927 -0.0010047057     7262.317    7518.5871    14780.904    408705.95 
   10500          105   0.50892623 0.00031028059    7184.6053    7633.1301    14817.735    406189.88 
   10600          106   0.50334819 -0.0012516531    7288.0947    7549.4679    14837.563    403699.63 
   10700          107   0.50437732 0.00023099535    7221.0148    7564.9033    14785.918     401235.3 
   10800          108   0.49972444 -0.0012746297     7303.817     7495.117    14798.934    398796.14 
   10900          109    0.4967488 -0.0011695196    7275.7322    7450.4869    14726.219    396381.26 
   11000          110   0.50044582 -0.00033477092    7272.0965    7505.9366    14778.033    393990.62 
   11100          111   0.49484226 -0.00056566674    7240.2591    7421.8916    14662.151    391624.61 
   11200          112   0.50063069 0.0011955986    7183.0247    7508.7095    14691.734    389282.63 
   11300          113   0.50227678 -0.0023086106    7352.9658    7533.3983    14886.364    386964.24 
   11400          114   0.49847157 0.0008620631    7327.4082    7476.3258    14803.734    384667.55 
   11500          115   0.50458641 -8.6914917e-05    7305.4083    7568.0393    14873.448    382393.37 
   11600          116   0.50307899 0.00048749443    7341.6188    7545.4302    14887.049    380142.33 
   11700          117   0.49924427 -0.0029257445    7353.1081    7487.9151    14841.023    377913.28 
   11800          118   0.50538307  0.002065011    7379.5025    7579.9879     14959.49    375704.48 
   11900          119    0.5044505 0.00051996253    7225.8572    7566.0008    14791.858     373517.9 
   12000          120   0.50538544 -0.0019329891    7310.4094    7580.0235    14890.433    371352.98 
   12100          121   0.49403684  0.000190833    7260.2265    7409.8116    14670.038    369208.89 
   12200          122    0.4970721 0.0024599818    7276.0109    7455.3359    14731.347    367085.06 
   12300          123   0.49611297 -0.0023504055    7178.4077    7440.9504    14619.358    364982.01 
   12400          124   0.49804932 0.0017606276    7253.4954    7469.9928    14723.488    362897.47 
   12500          125   0.49995609 -0.00055005791    7260.0892    7498.5914    14758.681    360832.69 
   12600          126   0.49619504  0.002770188    7355.1449    7442.1813    14797.326    358788.12 
   12700          127   0.49890964 -0.0021743138    7431.0264    7482.8962    14913.923    356763.88 
   12800          128   0.50021926 -0.0019980642    7410.0431    7502.5386    14912.582    354758.35 
   12900          129   0.50447594 0.0012729918    7243.7753    7566.3824    14810.158    352769.99 
   13000          130   0.49895733 -5.2970129e-05    7357.1431    7483.6115    14840.755    350799.81 
   13100          131   0.49930377 -0.00025558371    7175.4988    7488.8075    14664.306    348847.85 
   13200          132   0.50320905 0.0017064238    7225.5992    7547.3809     14772.98    346914.24 
   13300          133   0.49569393 0.0024278109     7168.837    7434.6654    14603.502    344998.77 
   13400          134   0.49666573 -0.00061735421    7284.5489     7449.241     14733.79    343100.97 
   13500          135   0.50659676 0.00073564252    7232.1974    7598.1914    14830.389    341221.32 
   13600          136    0.5053573 0.00089927846    7229.3249    7579.6015    14808.926    339357.14 
   13700          137   0.50437273 -8.5437103e-05    7190.9748    7564.8344    14755.809    337509.99 
   13800          138   0.49963267 0.0020331773    7301.3061    7493.7406    14795.047    335678.18 
   13900          139   0.49616021 -0.00056114289     7286.629    7441.6588    14728.288    333863.16 
   14000          140    0.4992598 -0.0019446801    7298.7934    7488.1481    14786.942    332064.61 
[...]
  288600         2886   0.49351136   0.48105679    7763.9571    7401.9302    15165.887    17263.857 
  288700         2887   0.50347925   0.48229439    7521.4099    7551.4336    15072.844    17262.511 
  288800         2888   0.49835957   0.44409096    7670.0299     7474.646    15144.676    17260.987 
  288900         2889   0.49783627   0.50121411    7669.2394    7466.7972    15136.037    17259.377 
  289000         2890   0.49804227   0.51579635    7617.2927     7469.887     15087.18    17257.599 
  289100         2891   0.49916442   0.50663493    7754.2747    7486.7176    15240.992    17255.767 
  289200         2892   0.50210959    0.5047257    7714.4674    7530.8908    15245.358    17253.853 
  289300         2893   0.49970515   0.51600127    7662.3528    7494.8277    15157.181    17251.828 
  289400         2894   0.49928416   0.50943212    7660.1173    7488.5135    15148.631    17249.823 
  289500         2895   0.50209659   0.51168429    7673.2985    7530.6957    15203.994    17247.822 
  289600         2896   0.49581149   0.50488181      7663.91    7436.4287    15100.339    17245.725 
  289700         2897   0.50250147   0.48181919    7663.9115    7536.7683     15200.68    17243.618 
  289800         2898   0.50537796   0.52149955    7698.1411    7579.9113    15278.052    17241.589 
  289900         2899   0.50146155   0.53552239    7727.9069     7521.171    15249.078    17239.572 
  290000         2900   0.50247741   0.45652844    7772.0908    7536.4074    15308.498    17237.518 
  290100         2901   0.50520515   0.49192157    7679.8329    7577.3195    15257.152    17235.519 
  290200         2902   0.50088369   0.47461674    7624.3118    7512.5041    15136.816    17233.409 
  290300         2903   0.49552249   0.49692574     7599.574    7432.0941    15031.668    17231.107 
  290400         2904   0.49935035   0.49849414    7617.0393    7489.5062    15106.545    17228.667 
  290500         2905   0.49953492   0.50187332    7783.1448    7492.2744    15275.419    17226.103 
  290600         2906   0.49663958   0.44830974    7720.7701    7448.8487    15169.619    17223.444 
  290700         2907   0.50167289   0.41943444    7668.1817    7524.3409    15192.523    17220.675 
  290800         2908   0.49622028   0.52565032    7770.9748    7442.5598    15213.535    17217.921 
  290900         2909   0.49730113   0.47928837    7786.9632    7458.7709    15245.734    17215.284 
  291000         2910   0.50300791   0.48246267    7670.0157    7544.3641     15214.38     17212.65 
  291100         2911   0.50836567   0.44995556    7692.4318    7624.7224    15317.154    17209.978 
  291200         2912   0.50339428   0.47440642    7594.6724     7550.159    15144.831    17207.271 
  291300         2913   0.50238603   0.45762557    7623.9457    7535.0368    15158.983    17204.497 
  291400         2914   0.50856674   0.52396442    7804.9099    7627.7382    15432.648    17201.595 
  291500         2915   0.49942286   0.46476575    7649.0931    7490.5937    15139.687    17198.678 
  291600         2916   0.50375269   0.43316982    7641.1057    7555.5347     15196.64    17195.552 
  291700         2917   0.50153368   0.50579876    7764.9836     7522.253    15287.237    17192.283 
  291800         2918   0.50028964   0.38889776    7810.3718    7503.5941    15313.966    17189.004 
  291900         2919   0.49913648   0.46793447    7659.0077    7486.2985    15145.306    17185.669 
  292000         2920   0.50309812   0.54292288    7647.6348    7545.7171    15193.352    17182.318 
  292100         2921   0.50372194   0.50167926    7705.8793    7555.0735    15260.953    17178.984 
  292200         2922    0.4983566    0.4726327    7684.5722    7474.6015    15159.174    17175.711 
  292300         2923   0.50561636   0.46304529    7691.9753    7583.4869    15275.462    17172.509 
  292400         2924   0.49750286   0.52673467    7726.8163    7461.7966    15188.613     17169.42 
  292500         2925   0.49311173   0.46611858    7619.0291    7395.9362    15014.965    17166.593 
  292600         2926    0.4980128   0.46526377     7778.124    7469.4451    15247.569    17163.826 
  292700         2927   0.50103213   0.57817269    7664.6338    7514.7305    15179.364    17160.961 
  292800         2928   0.50465983   0.50357783     7656.963    7569.1404    15226.103    17158.121 
  292900         2929   0.50485651   0.46371666    7712.4679    7572.0904    15284.558    17155.345 
  293000         2930   0.50113399   0.48245579    7616.1054    7516.2581    15132.364    17152.613 
  293100         2931   0.49931414   0.46155092    7618.3364    7488.9632      15107.3    17149.836 
  293200         2932   0.49760311   0.47394505    7589.5603    7463.3003    15052.861    17147.085 
  293300         2933   0.50433479   0.52839256    7709.1808    7564.2654    15273.446    17144.225 
  293400         2934   0.49870677    0.4561499     7607.277    7479.8535     15087.13    17141.277 
  293500         2935   0.49033843   0.46196437    7782.2093    7354.3409     15136.55    17138.126 
  293600         2936   0.49669156   0.44191945    7612.0858    7449.6283    15061.714    17134.982 
  293700         2937   0.49335222   0.48841287    7617.2531    7399.5432    15016.796    17131.868 
  293800         2938   0.49688062   0.49795795    7648.8972     7452.464    15101.361    17128.814 
  293900         2939   0.49532873   0.46032088    7656.7846     7429.188    15085.973    17125.867 
  294000         2940   0.49612171   0.51682179    7649.0374    7441.0815    15090.119    17122.903 
  294100         2941   0.49651668   0.56257514    7655.8982    7447.0054    15102.904    17120.074 
  294200         2942   0.50309954   0.54797684    7618.0059    7545.7385    15163.744    17117.445 
  294300         2943   0.50008614   0.55154314    7637.0939    7500.5419    15137.636    17114.964 
  294400         2944   0.49918243    0.4976205    7636.5033    7486.9877    15123.491    17112.653 
  294500         2945   0.49922904   0.50166072    7713.0297    7487.6868    15200.717    17110.252 
  294600         2946   0.50042587   0.48569976    7736.9753    7505.6375    15242.613    17107.784 
  294700         2947   0.49661826   0.51982711    7716.5291    7448.5289    15165.058    17105.341 
  294800         2948   0.49704481   0.51831578     7645.179    7454.9266    15100.106    17103.001 
  294900         2949   0.49646887   0.45689588    7615.4394    7446.2883    15061.728    17100.675 
  295000         2950   0.50261212   0.55208642    7810.5481    7538.4278    15348.976    17098.341 
  295100         2951    0.5002496   0.40666712    7763.9279    7502.9937    15266.922    17096.024 
  295200         2952   0.50053349   0.51029451    7706.4517    7507.2516    15213.703    17093.621 
  295300         2953   0.50904073   0.50800505    7785.4367    7634.8475    15420.284    17091.135 
  295400         2954   0.50840297   0.51370902    7748.7706     7625.282    15374.053    17088.684 
  295500         2955   0.49614205   0.48518118    7729.8391    7441.3866    15171.226     17086.29 
  295600         2956   0.50144327   0.57883773    7764.3424    7520.8969    15285.239    17083.949 
  295700         2957   0.49659515   0.43864223    7595.7047    7448.1824    15043.887    17081.749 
  295800         2958   0.49812063   0.51238395    7576.6503    7471.0622    15047.713    17079.573 
  295900         2959    0.5023126   0.50276273    7657.1993    7533.9356    15191.135    17077.504 
  296000         2960   0.50191024    0.4278564     7684.804    7527.9008    15212.705    17075.613 
  296100         2961    0.4950241    0.5028422    7668.9901    7424.6189    15093.609    17073.767 
  296200         2962   0.49572296   0.53863519    7687.7386    7435.1008    15122.839    17071.881 
  296300         2963    0.4987577   0.45018876    7711.1935    7480.6173    15191.811     17070.06 
  296400         2964   0.50099596   0.57274667     7756.559     7514.188    15270.747    17068.291 
  296500         2965   0.50928274   0.48285899    7704.2375    7638.4771    15342.715    17066.433 
  296600         2966   0.50334516   0.50235129    7702.7057    7549.4224    15252.128    17064.586 
  296700         2967   0.50137144   0.54868188     7759.847    7519.8195    15279.667    17062.833 
  296800         2968   0.50137139   0.47393922    7769.3285    7519.8188    15289.147    17061.152 
  296900         2969   0.50020275   0.55837565    7797.8535    7502.2909    15300.144    17059.444 
  297000         2970   0.50469371    0.4931334    7658.5067    7569.6486    15228.155    17057.698 
  297100         2971   0.50196512   0.51490123    7727.6974    7528.7239    15256.421     17056.05 
  297200         2972   0.50568999   0.47652076    7719.4904    7584.5913    15304.082    17054.463 
  297300         2973    0.5115208   0.53402497     7670.932    7672.0447    15342.977    17052.994 
  297400         2974   0.50659032   0.48314061    7625.7442     7598.095    15223.839    17051.546 
  297500         2975   0.50347103   0.47929596    7592.9235    7551.3102    15144.234    17050.142 
  297600         2976   0.50037933   0.55352369     7704.138    7504.9394    15209.077    17048.841 
  297700         2977   0.50167638   0.50115728    7774.1763    7524.3931    15298.569    17047.432 
  297800         2978   0.49858964   0.51313189    7753.6734    7478.0967     15231.77    17045.821 
  297900         2979   0.50082937   0.43942569    7675.7905    7511.6893     15187.48    17044.138 
  298000         2980   0.49935486   0.47475301    7685.6944    7489.5738    15175.268    17042.403 
  298100         2981   0.50375751    0.4959176    7674.7894    7555.6071    15230.396    17040.518 
  298200         2982   0.49640193    0.4847406    7727.2852    7445.2844     15172.57    17038.552 
  298300         2983   0.49758653   0.48106504    7709.7153    7463.0516    15172.767     17036.46 
  298400         2984   0.50025112    0.5588488    7641.6141    7503.0164     15144.63     17034.27 
  298500         2985   0.50081293   0.45601006    7652.3302    7511.4427    15163.773    17032.138 
  298600         2986   0.49907455   0.44762962    7672.2507    7485.3697     15157.62    17030.112 
  298700         2987   0.50468783    0.4909786    7688.9112    7569.5605    15258.472    17028.125 
  298800         2988   0.50753138   0.57646469    7578.7081    7612.2094    15190.917    17026.262 
  298900         2989   0.49392798   0.42813587    7714.8531    7408.1788    15123.032    17024.558 
  299000         2990   0.48947104   0.52044657    7770.7392    7341.3314    15112.071    17022.877 
  299100         2991   0.49528026   0.47449429    7619.1343     7428.461    15047.595    17021.363 
  299200         2992   0.50182667   0.49269067    7698.2741    7526.6473    15224.921    17019.783 
  299300         2993   0.49907712   0.46522304    7672.7781    7485.4082    15158.186    17018.107 
  299400         2994   0.50035268   0.54708762      7796.54    7504.5396     15301.08    17016.422 
  299500         2995   0.49293259   0.54124628    7685.6917    7393.2494    15078.941    17014.789 
  299600         2996   0.49621697   0.49631374    7648.6983    7442.5102    15091.209    17013.189 
  299700         2997   0.50176347   0.48796771    7635.6285    7525.6993    15161.328    17011.573 
  299800         2998   0.49816152   0.48191684     7591.969    7471.6756    15063.645      17009.9 
  299900         2999   0.50031461   0.48446885    7669.8997    7503.9687    15173.868    17008.121 
  300000         3000   0.49866646   0.57038569     7573.223    7479.2489    15052.472    17006.217 
Loop time of 667.053 on 1 procs for 300000 steps with 10000 atoms

Performance: 388574.760 tau/day, 449.739 timesteps/s
98.2% CPU use with 1 MPI tasks x 1 OpenMP threads

MPI task timing breakdown:
Section |  min time  |  avg time  |  max time  |%varavg| %total
---------------------------------------------------------------
Pair    | 60.379     | 60.379     | 60.379     |   0.0 |  9.05
Bond    | 216.84     | 216.84     | 216.84     |   0.0 | 32.51
Neigh   | 151.73     | 151.73     | 151.73     |   0.0 | 22.75
Comm    | 20.105     | 20.105     | 20.105     |   0.0 |  3.01
Output  | 15.631     | 15.631     | 15.631     |   0.0 |  2.34
Modify  | 190.76     | 190.76     | 190.76     |   0.0 | 28.60
Other   |            | 11.61      |            |       |  1.74

Nlocal:    10000 ave 10000 max 10000 min
Histogram: 1 0 0 0 0 0 0 0 0 0
Nghost:    5172 ave 5172 max 5172 min
Histogram: 1 0 0 0 0 0 0 0 0 0
Neighs:    31473 ave 31473 max 31473 min
Histogram: 1 0 0 0 0 0 0 0 0 0

Total # of neighbors = 31473
Ave neighs/atom = 3.1473
Ave special neighs/atom = 4.8
Neighbor list builds = 37168
Dangerous builds = 0

unfix 2
unfix 3
fix 4 all nve
fix 5 all langevin ${T} ${T} 1 123456
fix 5 all langevin 0.5 ${T} 1 123456
fix 5 all langevin 0.5 0.5 1 123456
fix recen1 all recenter INIT INIT INIT


# RUN
run ${run_steps}
run 5000
Per MPI rank memory allocation (min/avg/max) = 20.15 | 20.15 | 20.15 Mbytes
Step Time Temp Press PotEng KinEng TotEng Volume 
  300000         3000   0.49866646   0.57038569     7573.223    7479.2489    15052.472    17006.217 
  300100         3001   0.49611714   0.45445222    7630.3509    7441.0129    15071.364    17006.217 
  300200         3002   0.50578947   0.44784026    7635.4636    7586.0833    15221.547    17006.217 
  300300         3003   0.51087867   0.49127849    7686.9082    7662.4137    15349.322    17006.217 
  300400         3004   0.49596297   0.51190613    7667.9011    7438.7007    15106.602    17006.217 
  300500         3005   0.50225002   0.44597748    7771.9219     7532.997    15304.919    17006.217 
  300600         3006   0.50418197   0.54311089    7728.2633    7561.9732    15290.237    17006.217 
  300700         3007   0.49300637    0.4448196    7617.2168     7394.356    15011.573    17006.217 
  300800         3008    0.4997662   0.57250884    7627.6574    7495.7433    15123.401    17006.217 
  300900         3009   0.50225957   0.47183719    7703.2723    7533.1402    15236.413    17006.217 
  301000         3010   0.49798771   0.51283628     7741.458    7469.0687    15210.527    17006.217 
  301100         3011   0.49349594   0.56327837    7695.5923    7401.6988    15097.291    17006.217 
  301200         3012   0.49785505   0.48479542    7702.7854     7467.079    15169.864    17006.217 
  301300         3013   0.49733604   0.50350077    7761.8973    7459.2946    15221.192    17006.217 
  301400         3014   0.49792911   0.51835938    7646.9299    7468.1898     15115.12    17006.217 
  301500         3015   0.49939284   0.48398711    7657.3223    7490.1435    15147.466    17006.217 
  301600         3016   0.49752187   0.49668595    7705.2708    7462.0818    15167.353    17006.217 
  301700         3017   0.50695363   0.58681218     7660.391    7603.5441    15263.935    17006.217 
  301800         3018   0.50041785   0.43909641     7574.173    7505.5171     15079.69    17006.217 
  301900         3019    0.5041347   0.54970325    7522.2246    7561.2643    15083.489    17006.217 
  302000         3020   0.50416105   0.50880557    7506.4673    7561.6596    15068.127    17006.217 
  302100         3021   0.49368261   0.48153001    7581.3727    7404.4986    14985.871    17006.217 
  302200         3022   0.50323843   0.53159772    7530.7218    7547.8217    15078.543    17006.217 
  302300         3023   0.49546612    0.4826131    7691.5617    7431.2487     15122.81    17006.217 
  302400         3024   0.50462576   0.45533985    7687.2446    7568.6295    15255.874    17006.217 
  302500         3025   0.50103612   0.52795852    7725.4133    7514.7902    15240.203    17006.217 
  302600         3026   0.50228961   0.44288818    7762.0965    7533.5906    15295.687    17006.217 
  302700         3027     0.500741   0.43470914    7698.0815     7510.364    15208.445    17006.217 
  302800         3028    0.5021181   0.48754211    7471.0073    7531.0184    15002.026    17006.217 
  302900         3029   0.49761745   0.48501446    7670.3773    7463.5153    15133.893    17006.217 
  303000         3030   0.49763258   0.58969333    7715.4931    7463.7423    15179.235    17006.217 
  303100         3031   0.50807856   0.44884694    7682.5014    7620.4163    15302.918    17006.217 
  303200         3032   0.49782044   0.48737568    7845.5804    7466.5599     15312.14    17006.217 
  303300         3033   0.50697899   0.43089188    7633.0841    7603.9244    15237.009    17006.217 
  303400         3034   0.49451186     0.556833    7498.7547    7416.9361    14915.691    17006.217 
  303500         3035   0.49923202   0.45097337    7632.1841    7487.7314    15119.915    17006.217 
  303600         3036   0.49824724   0.52345462    7660.6023    7472.9613    15133.564    17006.217 
  303700         3037   0.50221222   0.54783458      7573.14    7532.4299     15105.57    17006.217 
  303800         3038   0.49288135   0.48532475     7540.379     7392.481     14932.86    17006.217 
  303900         3039   0.49608387   0.47856209    7649.2268    7440.5139    15089.741    17006.217 
  304000         3040   0.49978581   0.52282457     7693.491    7496.0375    15189.528    17006.217 
  304100         3041   0.49879737   0.47479958    7545.6849    7481.2124    15026.897    17006.217 
  304200         3042   0.50108068   0.56378178    7618.6824    7515.4586    15134.141    17006.217 
  304300         3043    0.4926635   0.41829157     7594.514    7389.2135    14983.727    17006.217 
  304400         3044   0.49804306   0.55331551    7663.5224    7469.8988    15133.421    17006.217 
  304500         3045   0.50149931   0.51649444    7627.1836    7521.7374    15148.921    17006.217 
  304600         3046   0.49312784   0.45955267    7723.3566     7396.178    15119.535    17006.217 
  304700         3047   0.50146132   0.52955836    7712.7448    7521.1676    15233.912    17006.217 
  304800         3048   0.49204532   0.54512472    7623.0412    7379.9417    15002.983    17006.217 
  304900         3049   0.49530695   0.43895665    7657.4028    7428.8613    15086.264    17006.217 
  305000         3050   0.50565723   0.44027198    7696.2266    7584.0999    15280.327    17006.217 
Loop time of 10.4749 on 1 procs for 5000 steps with 10000 atoms

Performance: 412413.377 tau/day, 477.330 timesteps/s
99.0% CPU use with 1 MPI tasks x 1 OpenMP threads

MPI task timing breakdown:
Section |  min time  |  avg time  |  max time  |%varavg| %total
---------------------------------------------------------------
Pair    | 1.1987     | 1.1987     | 1.1987     |   0.0 | 11.44
Bond    | 2.4974     | 2.4974     | 2.4974     |   0.0 | 23.84
Neigh   | 3.2566     | 3.2566     | 3.2566     |   0.0 | 31.09
Comm    | 0.39723    | 0.39723    | 0.39723    |   0.0 |  3.79
Output  | 0.26209    | 0.26209    | 0.26209    |   0.0 |  2.50
Modify  | 2.6555     | 2.6555     | 2.6555     |   0.0 | 25.35
Other   |            | 0.2074     |            |       |  1.98

Nlocal:    10000 ave 10000 max 10000 min
Histogram: 1 0 0 0 0 0 0 0 0 0
Nghost:    5143 ave 5143 max 5143 min
Histogram: 1 0 0 0 0 0 0 0 0 0
Neighs:    31396 ave 31396 max 31396 min
Histogram: 1 0 0 0 0 0 0 0 0 0

Total # of neighbors = 31396
Ave neighs/atom = 3.1396
Ave special neighs/atom = 4.8
Neighbor list builds = 607
Dangerous builds = 0

# SHELL
shell copy output.dump        output_T_${T}_box_${box}_run_${run_tau}.dump
shell copy output.dump        output_T_0.5_box_${box}_run_${run_tau}.dump
shell copy output.dump        output_T_0.5_box_100_run_${run_tau}.dump
shell copy output.dump        output_T_0.5_box_100_run_50.dump
shell echo> T_${T}.done
shell echo> T_0.5.done
#shell commands modified for use in windows

#This section  of codes allows looping over the list of T values
clear
OMP_NUM_THREADS environment is not set. Defaulting to 1 thread. (../comm.cpp:94)
  using 1 OpenMP thread(s) per MPI task
next mix_steps
jump in.run

Total wall time: 0:38:28
