LAMMPS (3 Mar 2020)
OMP_NUM_THREADS environment is not set. Defaulting to 1 thread. (../comm.cpp:94)
  using 1 OpenMP thread(s) per MPI task
#SETUP
# Runs on the first loop only
shell del *.dump     # delete all dump files before first run CAREFUL WITH THIS
shell del restart.time*     # delete all current restart files before first run
shell lmp_serial -in in.run_setup     # first run of file, generate first restart file

#VARIABLES
variable N         equal  1000 #MUST BE SAME AS SETUP FILE FOR PHASEPLOT
variable len       equal  15  #MUST BE SAME AS SETUP FILE FOR PHASEPLOT
variable T         equal  0.5
variable t_step    equal  0.005 #originally 0.005
variable mix_steps index  50000 50000 50000 50000 50000 50000 50000
variable mix_tau   equal  ${t_step}*${mix_steps}
variable mix_tau   equal  0.005*${mix_steps}
variable mix_tau   equal  0.005*50000
variable run_steps equal  2000000 # steps to run simulation in order to reach steady state
variable run_tau   equal  ${t_step}*${run_steps} # this is the time in LJ units
variable run_tau   equal  0.005*${run_steps} 
variable run_tau   equal  0.005*2000000 
#1000 particles averages 35,000 steps per minute

#LOOP START
label loop  #start loop from here
read_restart restart.time*
  restoring atom style molecular from restart
  orthogonal box = (-50 -150 -50) to (50 150 50)
  1 by 1 by 1 MPI processor grid
  restoring pair style lj/cut from restart
  restoring bond style harmonic from restart
  restoring angle style harmonic from restart
  15000 atoms
  14000 bonds
  13000 angles
  2 = max # of 1-2 neighbors
  2 = max # of 1-3 neighbors
  4 = max # of 1-4 neighbors
  6 = max # of special neighbors
  special bonds CPU = 0.0209501 secs
  read_restart CPU = 0.0498629 secs
# this reads in latest restart file, * is wildcard for timestep


# THERMAL
timestep ${t_step}
timestep 0.005
thermo   100
thermo_style custom step time temp press pe ke etotal vol
thermo_modify norm no


# DUMP OUTPUT
dump  1  all custom 25000 output_T_${T}_time_*.dump id mol type x y z vx vy vz
dump  1  all custom 25000 output_T_0.5_time_*.dump id mol type x y z vx vy vz
# dumps all positions etc every N  steps
dump_modify 1 sort id

# FIX
fix 2 all nph iso ${T} ${T} 100   #changed from T = 0.5 to match variable T
fix 2 all nph iso 0.5 ${T} 100   
fix 2 all nph iso 0.5 0.5 100   
fix 3 all langevin ${T} ${T} 1 123456 #as above
fix 3 all langevin 0.5 ${T} 1 123456 
fix 3 all langevin 0.5 0.5 1 123456 
run ${mix_steps}
run 50000
Neighbor list info ...
  update every 1 steps, delay 10 steps, check yes
  max neighbors/atom: 2000, page size: 100000
  master list distance cutoff = 1.42
  ghost atom cutoff = 1.9
  binsize = 0.71, bins = 141 423 141
  1 neighbor lists, perpetual/occasional/extra = 1 0 0
  (1) pair lj/cut, perpetual
      attributes: half, newton on
      pair build: half/bin/newton
      stencil: half/bin/3d/newton
      bin: standard
Per MPI rank memory allocation (min/avg/max) = 46.56 | 46.56 | 46.56 Mbytes
Step Time Temp Press PotEng KinEng TotEng Volume 
       0            0            0 -5.2940572e-15    548311.35            0    548311.35 3000000 
     100          0.5    7.9356685  -0.01040215    167611.47    178540.64    346152.11    2988590.4 
     200            1    3.7916346 0.00040327327    126337.91    85306.091       211644    2958238.8 
     300          1.5    3.1536938  0.017514723    75825.249    70953.379    146778.63    2926170.2 
     400            2    2.0488319 0.0027060204    46795.812    46095.644    92891.455    2897878.6 
     500          2.5    1.6731422 0.0059696851    27815.829     37643.19     65459.02    2868709.4 
     600            3    1.0197937 -0.033202394    25004.738     22943.83    47948.568    2840538.6 
     700          3.5   0.82438777 0.0060390823    18761.661    18547.488    37309.149    2814924.9 
     800            4   0.70831912  0.015000725    15740.811    15936.118    31676.929    2791238.6 
     900          4.5   0.64200163 -0.011672917    12657.553    14444.074    27101.626    2768517.1 
    1000            5   0.58548725 -0.0031414429     11655.35    13172.585    24827.935    2746304.6 
    1100          5.5   0.54404414 0.0074589599    11164.157    12240.177    23404.334    2724673.1 
    1200            6   0.51985655 0.00060547432      10903.8    11695.993    22599.793    2703651.8 
    1300          6.5   0.51734296 0.0010663046    10495.214    11639.441    22134.655      2683123 
    1400            7   0.51505359 -0.00039751869    10358.652    11587.933    21946.585    2663017.5 
    1500          7.5   0.50398957 -0.0009999407    10324.587    11339.009    21663.596    2643280.4 
    1600            8   0.50097171 0.0011925289    10102.733    11271.112    21373.845    2623912.9 
    1700          8.5   0.50058616 -0.00079699137    10099.303    11262.438    21361.741    2604923.3 
    1800            9   0.49930582 -0.00028592159    10144.158    11233.632     21377.79    2586270.3 
    1900          9.5   0.49821874 0.0010310276    10201.692    11209.174    21410.866    2567928.9 
    2000           10   0.50144348 0.00013866457    10095.004    11281.726     21376.73    2549889.6 
    2100         10.5   0.49832714 0.00048887786    10124.027    11211.613     21335.64    2532137.8 
    2200           11   0.50352769 0.00077514299    10047.119    11328.618    21375.737    2514668.5 
    2300         11.5   0.50734537 -0.00017328302    10033.115     11414.51    21447.625    2497471.3 
    2400           12   0.49979563 0.00023756859    10018.376    11244.652    21263.028    2480526.2 
    2500         12.5   0.49665245 2.805906e-05     10013.23    11173.935    21187.165    2463828.5 
    2600           13   0.49456966 0.00029679749    10076.487    11127.076    21203.562    2447372.8 
    2700         13.5   0.50039417 0.00089022155    9869.2468    11258.118    21127.365    2431152.2 
    2800           14   0.49882664 -0.00051049998     9990.857    11222.851    21213.708    2415158.4 
    2900         14.5   0.50215378 0.0007317401    9966.8965    11297.707    21264.603    2399375.1 
    3000           15   0.50441283  0.000367583     10003.57    11348.532    21352.102    2383805.2 
    3100         15.5   0.50222766 8.2630885e-05    10023.138    11299.369    21322.507    2368442.8 
    3200           16   0.50627877 0.00058213724    10206.449    11390.513    21596.962    2353279.8 
    3300         16.5   0.50308347 0.00018985034    10094.261    11318.623    21412.884    2338315.9 
    3400           17   0.49589347 5.4287518e-05    10093.998    11156.859    21250.857      2323541 
    3500         17.5   0.49784993 0.0009426738    10027.964    11200.877    21228.841    2308947.1 
    3600           18   0.50393208 -0.00016693728    10083.782    11337.716    21421.498    2294538.3 
    3700         18.5   0.50684232 0.00041792108    10119.413    11403.192    21522.605    2280305.3 
    3800           19    0.5027151 0.00062365486    10062.671    11310.336    21373.006      2266245 
    3900         19.5   0.49758692 0.00024968891    10062.473    11194.959    21257.432    2252356.6 
    4000           20   0.49847674 0.00049269601    10118.017    11214.979    21332.996    2238630.9 
    4100         20.5   0.50109939 0.00046016817    10009.004    11273.985    21282.989    2225067.3 
    4200           21   0.50648417 -0.00011747582    9951.2947    11395.134    21346.429    2211660.9 
    4300         21.5   0.50612217 0.00044436988    9987.2438     11386.99    21374.233    2198404.5 
    4400           22   0.49931582 0.00086876106     10021.83    11233.857    21255.687    2185301.2 
    4500         22.5   0.50297236 0.00032396279    10056.541    11316.124    21372.665      2172349 
    4600           23   0.50201617 0.00025134328    9919.5948    11294.611    21214.205    2159538.8 
    4700         23.5   0.49316251 0.00016844462    9974.1649    11095.417    21069.581    2146869.1 
    4800           24   0.49636105 0.00067440148    10110.769    11167.379    21278.148    2134333.3 
    4900         24.5   0.49914801 -0.00035832522    10096.515    11230.081    21326.596    2121939.2 
    5000           25   0.50084638 0.00046548513    10060.036    11268.292    21328.328    2109679.3 
    5100         25.5   0.49999255 0.00093956167    10065.269    11249.082    21314.351    2097550.7 
    5200           26    0.4971186 0.00023382399    9949.2354    11184.423    21133.658    2085551.8 
    5300         26.5   0.49869919 0.00030187307    10039.708    11219.984    21259.692    2073678.4 
    5400           27   0.49871235  0.000550663    10138.828     11220.28    21359.107    2061932.2 
    5500         27.5   0.50109736 5.500152e-05    10113.739    11273.939    21387.678    2050309.1 
    5600           28   0.49950523 0.00021119983    10190.679    11238.118    21428.797    2038802.6 
    5700         28.5   0.50183276 0.00050719488    10088.789    11290.484    21379.273    2027416.7 
    5800           29   0.50085338 0.00023101134    10119.129     11268.45    21387.579    2016146.5 
    5900         29.5   0.50512335 -0.00063946378    10137.382    11364.518    21501.899    2004992.1 
    6000           30   0.49950038 0.0013416716    10168.963    11238.009    21406.972    1993943.4 
    6100         30.5   0.50185513 -0.00036214466    10072.172    11290.988     21363.16    1983008.7 
    6200           31   0.49639418 8.7888359e-05    10031.789    11168.124    21199.914      1972181 
    6300         31.5   0.50140192 0.00085873938    10134.957    11280.791    21415.748    1961461.3 
    6400           32   0.50123759 0.00014120833    10117.053    11277.094    21394.147    1950850.4 
    6500         32.5   0.50193674 0.00062647176    10148.234    11292.824    21441.057      1940339 
    6600           33   0.49826197 9.2797142e-05    10096.241    11210.147    21306.388    1929930.5 
    6700         33.5   0.50217082 0.0006229258    10066.709     11298.09    21364.799    1919619.3 
    6800           34   0.50052995 0.00075520054    10065.328    11261.173    21326.501    1909408.4 
    6900         34.5   0.49933148 3.3723552e-05    10097.091    11234.209    21331.301    1899296.4 
    7000           35   0.49788279 0.00016683617    10204.807    11201.616    21406.423    1889276.1 
    7100         35.5   0.50168317 0.00055901988    10105.982    11287.119    21393.101    1879348.7 
    7200           36   0.51197337 -0.00020889287    9967.5555    11518.633    21486.188    1869514.4 
    7300         36.5   0.50727394 -0.0002962334    10126.457    11412.903     21539.36    1859771.1 
    7400           37   0.50730359 0.00050133966    10148.729     11413.57    21562.298    1850114.8 
    7500         37.5   0.50290473 0.0010687716    10090.288    11314.602     21404.89    1840551.2 
    7600           38    0.4986621 0.00092795479    10108.534    11219.149    21327.683    1831078.5 
    7700         38.5   0.49688423 0.00030602022    10166.353     11179.15    21345.503      1821693 
    7800           39   0.49990787 0.00018446207    10055.879    11247.177    21303.056    1812390.6 
    7900         39.5    0.4969947 5.1062239e-06    10052.364    11181.635    21233.999    1803167.8 
    8000           40    0.4945598 -0.0001316419    10022.324    11126.854    21149.178    1794027.6 
    8100         40.5   0.49270687 0.00030607594    10024.456    11085.166    21109.622    1784968.3 
    8200           41   0.49766014 -2.0584593e-05    10029.077    11196.607    21225.683    1775990.7 
    8300         41.5   0.49548652 0.00025829321    10037.276    11147.703    21184.979    1767091.5 
    8400           42   0.49365081 -0.00021441465    10101.153    11106.403    21207.555    1758271.7 
    8500         42.5    0.5002062 0.00082042552     10021.61    11253.889    21275.499    1749528.3 
    8600           43   0.49907587 0.00017427819    10122.084    11228.458    21350.542    1740862.4 
    8700         43.5   0.50224965 -0.00064836424    10062.167    11299.864     21362.03    1732271.9 
    8800           44   0.49792195 0.0012562813    10135.894    11202.497     21338.39    1723752.3 
    8900         44.5   0.49898085 0.00032431535    9953.7433    11226.321    21180.064      1715308 
    9000           45   0.49881287 -6.2420597e-05    10011.748    11222.541    21234.289    1706935.5 
    9100         45.5   0.49783653 0.00031859386    10061.652    11200.575    21262.228    1698630.4 
    9200           46   0.49780825 -0.00039732235     10058.51    11199.939    21258.449    1690397.2 
    9300         46.5   0.49751671 0.0015417843    10085.441     11193.38    21278.821      1682234 
    9400           47   0.50170392 0.00047823095    10002.547    11287.586    21290.132      1674142 
    9500         47.5   0.49965312 -0.00021427138    10138.765    11241.446    21380.211    1666116.2 
    9600           48   0.50013779 0.0011311659    10079.898     11252.35    21332.247    1658153.6 
    9700         48.5   0.49967857 -0.00013304986    10150.667    11242.018    21392.685    1650260.3 
    9800           49   0.50081472 0.00079509499    10066.946     11267.58    21334.526    1642430.3 
    9900         49.5    0.5015962 0.00028319194    10143.551    11285.162    21428.713    1634667.8 
   10000           50    0.5023501 0.0003791992    9985.9479    11302.124    21288.072    1626967.3 
   10100         50.5   0.49938334 0.00026201522    10012.834    11235.376     21248.21    1619327.2 
   10200           51   0.49540683 0.00045461127    10073.115     11145.91    21219.026    1611746.1 
   10300         51.5   0.49570157 0.00014976732     10023.82    11152.542    21176.362    1604227.2 
   10400           52    0.4964537 0.00095038889    9975.0288    11169.464    21144.492    1596770.3 
   10500         52.5   0.49422395 0.00040496525    9970.2871    11119.298    21089.585    1589376.6 
   10600           53   0.49485304 0.00087529795    10024.079    11133.451    21157.531    1582039.4 
   10700         53.5   0.49771418 -0.00074686395    10074.618    11197.823    21272.441    1574760.5 
   10800           54   0.50784665 0.00090228508    10109.892    11425.788     21535.68    1567537.2 
   10900         54.5   0.50199544 0.00027693715    10244.185    11294.144    21538.329    1560370.5 
   11000           55    0.5052065 -0.0002120993    10143.688    11366.388    21510.076    1553260.7 
   11100         55.5   0.50861848 0.00011721658     9999.883    11443.153    21443.036    1546206.5 
   11200           56   0.50619871 0.0010628949    10050.006    11388.712    21438.717    1539204.4 
   11300         56.5   0.49983047 -0.00018449442    10127.167    11245.436    21372.602      1532258 
   11400           57   0.50309833 0.0012418307    9984.1684    11318.958    21303.126    1525363.8 
   11500         57.5   0.50063072 0.00036202046     10020.02     11263.44     21283.46    1518524.9 
   11600           58   0.50230086 0.0001832183    10028.433    11301.016    21329.449    1511737.4 
   11700         58.5   0.50128275 0.00039129228    10029.202     11278.11    21307.313    1505001.6 
   11800           59   0.49992962 0.0010386446    10113.494    11247.666     21361.16    1498317.1 
   11900         59.5   0.50507656 7.6737261e-05    10102.279    11363.465    21465.743    1491686.9 
   12000           60    0.5009449 0.00067280825     10031.44    11270.509    21301.948    1485105.3 
   12100         60.5   0.49440882 0.00073539827    10052.455    11123.457    21175.912    1478571.5 
   12200           61   0.49912743 2.4772533e-05    10038.602    11229.618     21268.22    1472086.5 
   12300         61.5   0.50534914 0.00062457463    9990.8396    11369.598    21360.437    1465649.6 
   12400           62   0.50208786 0.0017696249    10177.973    11296.224    21474.197    1459259.7 
   12500         62.5   0.49663432 -0.00026617031     10091.63    11173.527    21265.157    1452920.1 
   12600           63   0.49935316 -0.00010337799    10122.698    11234.697    21357.395    1446626.2 
   12700         63.5   0.50044369 0.0013274287    10066.916    11259.232    21326.148    1440376.8 
   12800           64   0.50333208 -0.00046588873    10109.918    11324.217    21434.135    1434175.3 
   12900         64.5   0.50171642 5.1742064e-05    10099.246    11287.867    21387.113    1428015.7 
   13000           65   0.49720775 -0.00033846481     10029.75    11186.429    21216.179    1421900.4 
   13100         65.5   0.49648774 0.00055581018    9937.7908    11170.229     21108.02    1415829.7 
   13200           66   0.49588346 0.00049854764    9940.6238    11156.634    21097.258    1409803.6 
   13300         66.5   0.50306405 0.00040183319    9904.7925    11318.187    21222.979    1403820.8 
   13400           67   0.50453264 0.00077637996    9982.3651    11351.228    21333.593    1397881.3 
   13500         67.5   0.49682257 0.00037067126    10130.875    11177.763    21308.638    1391985.6 
   13600           68   0.50559619 0.0010547867    10058.414    11375.156     21433.57    1386131.3 
   13700         68.5   0.49169417 0.00018453509    10132.868    11062.381    21195.249    1380319.8 
   13800           69   0.49923898 0.00086486857    10048.078    11232.128    21280.206    1374548.8 
   13900         69.5   0.49709417 0.00014647279    10081.643    11183.873    21265.517    1368818.9 
   14000           70   0.50157913 0.0016156973    9972.5682    11284.778    21257.346    1363126.8 
   14100         70.5   0.49755579 -0.00029381212    10003.942    11194.259    21198.201      1357477 
   14200           71   0.49962444 -2.3302646e-05    9965.6283      11240.8    21206.429    1351864.3 
   14300         71.5   0.50290334 0.0010900814    9995.8793    11314.571     21310.45    1346290.2 
   14400           72   0.50035504 7.6459877e-05    9979.1465    11257.238    21236.384    1340757.3 
   14500         72.5   0.50356784 0.00044253052    10117.328    11329.521    21446.849    1335262.7 
   14600           73   0.49620682 0.00093271391    10133.075    11163.909    21296.984    1329805.3 
   14700         73.5   0.50047956 7.6048991e-05    10010.672    11260.039    21270.711    1324387.2 
   14800           74   0.50488601 0.00067098022    10007.206    11359.178    21366.384    1319003.9 
   14900         74.5   0.50007795 0.00034651549    10167.254    11251.004    21418.258    1313656.6 
   15000           75   0.50471325 0.00057690354    10151.065    11355.291    21506.357    1308346.7 
   15100         75.5   0.50610059 0.0003198019    10081.138    11386.504    21467.642    1303073.2 
   15200           76   0.50826809 0.00062313511    10146.018     11435.27    21581.288    1297835.9 
   15300         76.5   0.50650789  0.001356676    10179.887    11395.668    21575.555    1292634.6 
   15400           77   0.50021569 0.00071545475    10153.567    11254.103    21407.669    1287469.1 
   15500         77.5   0.50686711 -0.00047836957    10044.709     11403.75    21448.458    1282337.5 
   15600           78   0.49854235 0.00047356604    10052.899    11216.455    21269.354    1277237.7 
   15700         78.5   0.49870996 0.00076642889    9957.9156    11220.226    21178.142    1272171.4 
   15800           79   0.50289921 7.3575751e-05    9898.1942    11314.478    21212.672    1267140.6 
   15900         79.5   0.49749866 0.00043505236    10042.572    11192.974    21235.545    1262143.2 
   16000           80   0.49842762 0.0011420603    10022.523    11213.874    21236.397    1257177.7 
   16100         80.5   0.49920895 -0.00069814813    10053.117    11231.453     21284.57    1252246.8 
   16200           81   0.50134746 0.00066559588    10008.101    11279.566    21287.667    1247346.1 
   16300         81.5   0.50159105 0.00079396799    10085.131    11285.046    21370.178    1242478.6 
   16400           82   0.49988593 -0.00041680583    10060.985    11246.684    21307.669      1237643 
   16500         82.5   0.50026674 0.00066598235    10014.125    11255.251    21269.376    1232837.9 
   16600           83   0.49558365 -0.00055711506    10091.664    11149.889    21241.553    1228065.2 
   16700         83.5   0.50377537 0.0014858458    9950.7485     11334.19    21284.939    1223322.2 
   16800           84   0.50345167  0.001082419    9964.7601    11326.907    21291.668    1218609.8 
   16900         84.5   0.49442016 -0.00081792366    10185.822    11123.712    21309.534    1213929.7 
   17000           85   0.50087203  0.001139907    10001.519    11268.869    21270.388    1209279.3 
   17100         85.5   0.49762867 0.0010706531    9959.4821    11195.899    21155.381    1204659.8 
   17200           86   0.49680469 -0.0002694197    10022.516     11177.36    21199.876    1200068.3 
   17300         86.5   0.49968379 -0.00011884676     9942.741    11242.136    21184.877    1195505.6 
   17400           87   0.49974091 0.0018216934    10107.203    11243.421    21350.624    1190971.3 
   17500         87.5   0.50131778 -0.00086863325     10069.05    11278.898    21347.948    1186466.6 
   17600           88   0.50452247  0.001047633    10070.235    11350.999    21421.233    1181988.4 
   17700         88.5   0.50419838 0.00060901924    10160.311    11343.707    21504.018    1177539.1 
   17800           89   0.50350587 0.00095881479    10094.471    11328.127    21422.597    1173118.3 
   17900         89.5   0.49973834 -8.4824443e-05    10016.714    11243.363    21260.077    1168725.6 
   18000           90   0.49872492 2.5695523e-05     10093.94    11220.563    21314.503    1164360.4 
   18100         90.5     0.500855 0.0015777679    9956.8564    11268.486    21225.343    1160021.5 
   18200           91   0.49823586 -0.00017901207    10121.788    11209.559    21331.348    1155709.9 
   18300         91.5   0.50160174 0.00056993645    10059.075    11285.287    21344.361    1151423.9 
   18400           92   0.50306065 0.0011127391    10052.832     11318.11    21370.942    1147164.6 
   18500         92.5   0.49436018 -0.0010039417    10107.706    11122.362    21230.069    1142931.3 
   18600           93   0.49706483 0.0013036487    10023.598    11183.213    21206.811    1138722.9 
   18700         93.5   0.49860403 0.00038396341    9963.8561    11217.843    21181.699    1134542.4 
   18800           94   0.50098295 -0.00084542719    9924.2334    11271.365    21195.598    1130387.7 
   18900         94.5   0.49780005 0.0013121914    9991.8014    11199.754    21191.556    1126255.5 
   19000           95   0.49878173 0.00096376183    9984.0932    11221.841    21205.934    1122149.6 
   19100         95.5   0.49890195 -0.00095492166    10099.119    11224.545    21323.664    1118070.6 
   19200           96   0.50093829 0.0023085205    9942.7448     11270.36    21213.105    1114014.7 
   19300         96.5   0.49737664 0.00037950054    10028.632    11190.228    21218.861    1109985.4 
   19400           97   0.49370768 -0.00041941029        10028    11107.682    21135.683    1105980.2 
   19500         97.5   0.49896875 0.0018234638    9970.0801    11226.048    21196.129    1101996.9 
   19600           98   0.49781056 4.4939841e-05    10123.253    11199.991    21323.244    1098038.8 
   19700         98.5    0.5008282 0.0011130938    10046.608    11267.883    21314.491    1094102.1 
   19800           99   0.49973198 -0.00089025585    10001.512     11243.22    21244.732    1090189.7 
   19900         99.5   0.50327232 -0.00010466428    9941.2827    11322.872    21264.155    1086299.6 
   20000          100   0.49620445 0.0011577024    10115.744    11163.856      21279.6    1082432.2 
   20100        100.5   0.49890175 -0.00051707428    10103.191    11224.541    21327.732    1078590.1 
   20200          101   0.50059396 0.0014309972    10131.823    11262.613    21394.436    1074769.1 
   20300        101.5   0.50452343 -0.00044230094     10047.21     11351.02     21398.23    1070971.9 
   20400          102    0.5043791 0.0009833211    9985.8104    11347.773    21333.584    1067195.2 
   20500        102.5   0.50307064 0.0007412207    10027.954    11318.335    21346.289      1063440 
   20600          103   0.49688047 0.00091180934    10073.165    11179.065     21252.23    1059708.6 
   20700        103.5    0.5077933 0.00057951143    9928.9819    11424.588     21353.57    1055999.8 
   20800          104   0.50033475 0.00054381144    10110.659    11256.781     21367.44    1052310.7 
   20900        104.5   0.50128426 0.00011838323    10072.199    11278.144    21350.343      1048643 
   21000          105   0.49716796 0.00079198394    9984.9387    11185.533    21170.472    1044995.5 
   21100        105.5   0.49069762 -0.00031377943     10122.98     11039.96     21162.94    1041370.9 
   21200          106   0.50051217  0.001433399    10017.882    11260.773    21278.655    1037766.3 
   21300        106.5   0.49898077 2.2886186e-05    10011.303    11226.319    21237.622    1034183.6 
   21400          107   0.50056466 0.00044424517    10004.231    11261.954    21266.185    1030621.4 
   21500        107.5   0.50384576 0.0023277152    10019.304    11335.774    21355.078    1027078.9 
   21600          108   0.49947915 0.00078950521    10049.615    11237.532    21287.147    1023557.4 
   21700        108.5   0.50137316 -0.00017390271    10027.718    11280.144    21307.863    1020056.2 
   21800          109   0.50173579 0.0013299898    9980.0811    11288.303    21268.384    1016572.6 
   21900        109.5   0.50387048 -0.00018999382     9992.047     11336.33    21328.377    1013109.3 
   22000          110   0.49951426 0.00056214492    10060.196    11238.322    21298.517    1009665.8 
   22100        110.5   0.50032975 0.00078239711    9967.8647    11256.669    21224.534    1006242.1 
   22200          111   0.50173221 -0.00025144389     10054.11    11288.222    21342.333    1002837.8 
   22300        111.5   0.50295027 0.0023449741    10045.871    11315.627    21361.498    999450.65 
   22400          112   0.49870602 -0.00035771456     10064.54    11220.137    21284.678    996083.99 
   22500        112.5     0.499948 -3.7023471e-05    10154.962     11248.08    21403.042    992737.07 
   22600          113   0.49948167 0.0020732385    10081.904    11237.588    21319.492    989407.29 
   22700        113.5   0.50004591 0.00040739288    10069.463    11250.283    21319.746    986095.24 
   22800          114   0.49703726 -0.00037184502    10075.188    11182.593    21257.781    982799.89 
   22900        114.5   0.49739213 0.00021993384    10159.234    11190.577     21349.81     979523.2 
   23000          115   0.50633061 0.0017985571    10121.431    11391.679     21513.11    976264.29 
   23100        115.5   0.50133545 -5.8808597e-05    10138.629    11279.296    21417.924    973025.26 
   23200          116   0.50306053 0.0011708437    10186.418    11318.107    21504.525    969804.11 
   23300        116.5   0.50063083 0.0012097932    10095.115    11263.443    21358.558    966600.76 
   23400          117   0.50494642 -0.00019838831    10016.138    11360.537    21376.675    963415.07 
   23500        117.5   0.49760565 0.00036824981     10126.76    11195.381    21322.141    960245.77 
   23600          118   0.49671358 2.4923575e-05    10066.735     11175.31    21242.045    957092.68 
   23700        118.5   0.49821653 0.00029725879    10010.556    11209.125     21219.68    953956.37 
   23800          119   0.49504575 0.0013444873    10035.456    11137.787    21173.243    950837.54 
   23900        119.5   0.49867128 -0.00019006451    9978.2095    11219.356    21197.565    947737.16 
   24000          120   0.49721778 -7.2535243e-06    10066.492    11186.654    21253.146    944652.55 
   24100        120.5   0.50611989 0.0020629111    10081.665    11386.938    21468.603    941583.87 
   24200          121    0.4959454 -0.0014471578    10159.476    11158.028    21317.504    938533.51 
   24300        121.5   0.49818813  0.002277199    10083.821    11208.486    21292.307    935497.58 
   24400          122   0.49790279 0.00032251557    10016.389    11202.066    21218.455    932478.79 
   24500        122.5   0.49714772 -0.0018636585    10065.683    11185.078    21250.761    929474.57 
   24600          123   0.49867322 0.0021483813    10167.306    11219.399    21386.705    926484.64 
   24700        123.5   0.50281624 0.0019070355    10028.978    11312.611    21341.589    923512.96 
   24800          124   0.49716126 0.00032652708    10049.962    11185.383    21235.345    920558.05 
   24900        124.5   0.49964035 0.0020120322    9972.9914    11241.158     21214.15       917618 
   25000          125   0.49396219 0.0011607665    9995.2964    11113.408    21108.705    914694.67 
   25100        125.5   0.49824675 -0.0008810323    9986.5871    11209.805    21196.392    911787.06 
   25200          126    0.4958302 0.0012932733    10010.804    11155.436     21166.24    908892.24 
   25300        126.5   0.50017512 -3.7159371e-05    10066.686     11253.19    21319.876    906012.81 
   25400          127   0.49668284 -0.00026135339    10157.561    11174.619     21332.18    903148.22 
   25500        127.5   0.50066003 0.00094723278    10188.271      11264.1    21452.371    900298.77 
   25600          128   0.49908157 0.0012302706      10174.2    11228.587    21402.786    897464.23 
   25700        128.5   0.50104051 0.00081254406    10047.944     11272.66    21320.604    894644.64 
   25800          129   0.49845854 -0.0003877344    10048.976     11214.57    21263.546     891839.8 
   25900        129.5   0.50467865 0.0011655646    10028.312    11354.513    21382.825    889049.05 
   26000          130   0.49997834  0.001206622    10204.844    11248.763    21453.607    886271.99 
   26100        130.5   0.49793842 -0.0018006896    10209.973    11202.868     21412.84    883509.94 
   26200          131   0.50252969 0.0025068982    10112.476    11306.164    21418.641    880760.57 
   26300        131.5   0.49785545 0.0010457911     10217.41    11201.001     21418.41    878026.53 
   26400          132    0.5000806 0.0004805796    10071.844    11251.063    21322.907    875305.33 
   26500        132.5    0.4956807 0.00060414936    10140.865    11152.072    21292.937    872598.21 
   26600          133   0.49886769 -0.0005207203     10071.81    11223.775    21295.585    869906.44 
   26700        133.5   0.50109326 0.0032359825    10108.489    11273.847    21382.336    867226.37 
   26800          134   0.50222674 -0.0011051896    10075.931    11299.348    21375.279     864561.6 
   26900        134.5   0.50142632 0.0001442339    10118.065     11281.34    21399.405    861908.77 
   27000          135   0.50209868 0.0025229811    10059.072    11296.467    21355.539    859268.48 
   27100        135.5   0.50086277 -0.0015368208    10069.722    11268.661    21338.383    856643.47 
   27200          136   0.50068776 0.0011500331    10090.407    11264.724    21355.131    854029.98 
   27300        136.5   0.49857854 0.0012493669    10029.917    11217.269    21247.186    851430.62 
   27400          137   0.50373618 0.00028451045    10016.897    11333.308    21350.206    848845.14 
   27500        137.5   0.50078363  0.001786792    10072.631     11266.88    21339.511    846270.81 
   27600          138   0.50566461 -0.0016539675    9996.8853    11376.695     21373.58    843710.39 
   27700        138.5   0.49716023 0.0010811955    9997.5982    11185.359    21182.958    841162.18 
   27800          139   0.50409643  0.003102385    9942.4881    11341.414    21283.902    838626.63 
   27900        139.5   0.49866035 -0.00050950549    10032.894     11219.11    21252.004    836104.85 
   28000          140   0.50301059 -0.00095946163    10086.322    11316.984    21403.306    833593.85 
   28100        140.5   0.50228429 0.0035517655    10287.388    11300.643    21588.031    831093.22 
   28200          141   0.50180059 -0.0014405091    10140.124    11289.761    21429.885    828607.67 
   28300        141.5   0.50186259 0.0013106664    9989.5565    11291.155    21280.712     826133.5 
   28400          142   0.49657884  0.001824181    10059.695    11172.279    21231.974    823673.12 
   28500        142.5   0.50068774 -0.00065861198    9958.7233    11264.723    21223.446    821225.49 
   28600          143   0.50576145 0.0012313916    9931.8204    11378.874    21310.694    818786.64 
   28700        143.5   0.50064421 0.00026566704    10062.706    11263.744     21326.45    816360.68 
   28800          144   0.49828546 6.6562036e-05    9985.7078    11210.675    21196.383    813947.26 
   28900        144.5   0.49946347 0.0011605214    10038.441    11237.179     21275.62    811545.51 
   29000          145   0.49989075 0.0025348979    10018.934    11246.792    21265.727    809155.42 
   29100        145.5   0.50250959 0.00083962299    10017.095    11305.712    21322.807    806777.52 
   29200          146   0.50340387 3.4278981e-05    10096.549    11325.832    21422.381    804410.73 
   29300        146.5   0.50093812 0.0018432481    10146.024    11270.356    21416.381    802054.59 
   29400          147   0.49512768 -9.8365026e-05    10193.144     11139.63    21332.774    799710.62 
   29500        147.5   0.49986574 -0.00084303933     10211.34    11246.229     21457.57    797377.17 
   29600          148   0.49795443 0.00041981294    10204.787    11203.228    21408.015    795054.18 
   29700        148.5   0.50866496  0.001771709    10034.477    11444.199    21478.676    792742.34 
   29800          149   0.49835725 -1.1624607e-05    10077.258    11212.291    21289.548    790442.31 
   29900        149.5    0.5041823 0.00095857928    10087.834    11343.346     21431.18    788152.49 
   30000          150   0.49936668 0.0017178984    10246.242    11235.001    21481.243    785873.39 
   30100        150.5    0.5039827 -0.0012006482    10049.904    11338.855    21388.759    783605.25 
   30200          151     0.502621  0.001238412    10011.732    11308.219    21319.951    781347.06 
   30300        151.5   0.49761152 0.0011414218    9999.4744    11195.513    21194.987    779100.78 
   30400          152   0.49765223 0.00049814948    9898.9598    11196.429    21095.389    776865.01 
   30500        152.5   0.49616225 0.00012082158    10030.745    11162.906    21193.651    774639.37 
   30600          153   0.49823282 0.0013847637    9980.5872    11209.491    21190.078    772424.18 
   30700        153.5   0.49570256 0.00051136345    10141.943    11152.564    21294.507    770219.46 
   30800          154   0.50116792 -0.00033335675    10108.843    11275.527     21384.37    768024.66 
   30900        154.5   0.50234185 0.0015886348    10147.952    11301.938     21449.89    765839.09 
   31000          155    0.4997059 0.0013387517    10106.372    11242.633    21349.005    763665.14 
   31100        155.5   0.50186302 0.00067567316    10140.946    11291.165    21432.112    761501.79 
   31200          156   0.50175047 -0.00065417708    10181.044    11288.633    21469.677     759348.3 
   31300        156.5   0.50592384 0.0026608036    10080.846    11382.527    21463.373    757204.19 
   31400          157   0.50723299 -0.00048592463    10083.635    11411.981    21495.617    755071.18 
   31500        157.5   0.50526608 0.00060640596    10081.437    11367.729    21449.166    752947.92 
   31600          158   0.50727863 0.0013586916    10060.216    11413.008    21473.225    750834.56 
   31700        158.5   0.50169805 0.00032898377    10008.855    11287.453    21296.308    748729.67 
   31800          159   0.49598774 -0.00070088915    10157.903     11158.98    21316.883    746634.19 
   31900        159.5   0.49547283 0.00067121609    10112.785    11147.396     21260.18    744548.19 
   32000          160   0.49733761 0.0019978596    10057.925     11189.35    21247.275    742472.22 
   32100        160.5   0.50008326 0.0016556297    9897.1246    11251.123    21148.248    740406.03 
   32200          161   0.50280703 0.0012272635    10065.444    11312.404    21377.848    738349.38 
   32300        161.5   0.50423692 0.0014613524    10041.701    11344.574    21386.276    736301.38 
   32400          162   0.50494439 0.00020243236    10074.641    11360.491    21435.132    734262.73 
   32500        162.5   0.49983484 0.0018444716    10130.324    11245.534    21375.858    732233.69 
   32600          163   0.49822597 0.00076401863    10123.747    11209.337    21333.084    730214.24 
   32700        163.5   0.50317479 -0.00042748849    10108.744    11320.678    21429.422    728203.19 
   32800          164   0.50242616  0.003079652    10092.659    11303.835    21396.494    726200.32 
   32900        164.5    0.5005471 -0.00060376509    10101.054    11261.559    21362.613    724207.98 
   33000          165   0.50200551 -0.00087191785    10009.648    11294.371    21304.019    722222.79 
   33100        165.5   0.50043281 0.00011294236    9975.4224    11258.988     21234.41    720245.97 
   33200          166   0.50068005 0.0032239462    10026.218     11264.55    21290.768    718278.16 
   33300        166.5   0.50196824 0.00022403029    10173.009    11293.532    21466.541    716320.43 
   33400          167   0.49944171 -0.00051224332    10259.076    11236.689    21495.766     714371.7 
   33500        167.5   0.50432172 0.0022165297    10103.165    11346.482    21449.647    712431.46 
   33600          168   0.49636881 -1.749766e-05     10143.93    11167.554    21311.483    710500.62 
   33700        168.5   0.50224648 -0.00095226857     10084.45    11299.792    21384.242    708577.49 
   33800          169   0.50036296 0.00016269015    10140.971    11257.416    21398.387    706662.03 
   33900        169.5   0.50171901 0.0012239243    10000.702    11287.925    21288.627    704754.82 
   34000          170   0.50440513 0.00096875479    9902.9586    11348.359    21251.317    702856.54 
   34100        170.5    0.4967646 0.0015220899    10127.444    11176.458    21303.902    700967.76 
   34200          171   0.49884026 0.0029920602    10150.073    11223.158     21373.23    699087.75 
   34300        171.5   0.49961248 -0.00030555565    10099.496    11240.531    21340.027    697216.46 
   34400          172   0.49659016 -1.99013e-05    10042.341    11172.534    21214.875    695351.36 
   34500        172.5   0.49729057 0.0010059001     10000.16    11188.292    21188.451    693492.95 
   34600          173   0.50131208 0.0004558846    9970.9806     11278.77     21249.75    691643.39 
   34700        173.5   0.49636673 0.0012281565    10115.254    11167.507    21282.761    689802.46 
   34800          174   0.50241977 0.00028510749    10083.364    11303.691    21387.055    687969.59 
   34900        174.5    0.4978222 0.00013431725    10099.888    11200.253    21300.141     686143.8 
   35000          175   0.50192013 0.0015497602    9989.9091     11292.45    21282.359    684326.28 
   35100        175.5   0.50096593 -0.00038683039    10044.183    11270.982    21315.165    682518.21 
   35200          176   0.49995189 0.00045001173    10035.603    11248.168     21283.77    680717.08 
   35300        176.5   0.50067468 0.0021399961    9942.3449    11264.429    21206.774    678924.24 
   35400          177   0.49461567 0.0013960831    10089.347    11128.111    21217.458    677139.07 
   35500        177.5   0.49950047 -0.0012398627    9939.1231    11238.011    21177.134    675362.39 
   35600          178   0.49825328 0.0022812093    10015.769    11209.952    21225.721    673591.56 
   35700        178.5   0.50118743 6.276716e-05    9966.0826    11275.965    21242.048    671829.09 
   35800          179   0.49720627 -0.00017937381    10090.747    11186.395    21277.142    670073.25 
   35900        179.5   0.49874652 0.0031232883    10129.802    11221.049     21350.85    668325.79 
   36000          180   0.49797235 0.0019001813    9953.1617    11203.631    21156.793    666587.18 
   36100        180.5   0.50262183 -0.00021815862    10074.782    11308.237     21383.02    664855.69 
   36200          181   0.50079179  0.002002649     10113.46    11267.064    21380.524    663129.78 
   36300        181.5   0.50507926 0.00096030455    10024.201    11363.526    21387.727    661411.03 
   36400          182   0.50693555 0.00083050601    10105.017    11405.289    21510.306     659699.9 
   36500        182.5   0.50715166 0.0012893568    10067.905    11410.152    21478.056    657996.53 
   36600          183   0.50557456 0.00057158888    10146.441    11374.669     21521.11    656299.69 
   36700        183.5   0.50436143 0.00073562567    10124.616    11347.376    21471.992    654609.84 
   36800          184   0.50096787 0.0021150795    10118.771    11271.026    21389.797    652927.04 
   36900        184.5    0.4971199 -0.00079091992    10129.203    11184.452    21313.655    651251.94 
   37000          185   0.50366096 0.0022048195    10038.645    11331.616    21370.261    649582.67 
   37100        185.5     0.499196 0.0015541964    9956.4795    11231.161    21187.641    647921.43 
   37200          186   0.50064522 0.00070708022    10053.709    11263.767    21317.476     646267.8 
   37300        186.5   0.50617164 0.0019674374    9921.9009    11388.103    21310.004    644620.48 
   37400          187    0.5014942 0.00029807329    10029.086    11282.867    21311.953    642980.06 
   37500        187.5   0.50217064 0.00038582542    9962.4845    11298.086    21260.571    641346.83 
   37600          188   0.49540401 0.0021673721     10014.83    11145.847    21160.677     639719.2 
   37700        188.5   0.49520107 -0.00080346435    9923.4998    11141.281    21064.781    638098.04 
   37800          189   0.50062603 0.0017581488    9877.1119    11263.335    21140.447    636483.45 
   37900        189.5   0.50108783 0.00085900006    10007.236    11273.725     21280.96    634877.32 
   38000          190     0.496671 0.0011494399     9979.962    11174.353    21154.315    633277.42 
   38100        190.5   0.49935956  0.003813722    9892.6464    11234.841    21127.488    631683.52 
   38200          191   0.49723038 -0.0019957189     10103.44    11186.938    21290.378    630097.12 
   38300        191.5   0.50509687 0.0034361457    9960.3407    11363.922    21324.263    628514.77 
   38400          192   0.50285882 0.0010461975    10096.696    11313.569    21410.266    626939.23 
   38500        192.5   0.49838934 -0.0011892905     10165.35    11213.013    21378.362    625371.16 
   38600          193   0.49276336 0.0038809557    10103.347    11086.436    21189.784    623809.81 
   38700        193.5   0.49273005 0.00010734281    9971.2722    11085.687    21056.959    622256.02 
   38800          194   0.49374624 -0.001472553     9984.016     11108.55    21092.566    620707.74 
   38900        194.5   0.50483414 0.0019450894    9998.0939    11358.011    21356.105    619164.65 
   39000          195   0.49719844 0.0019470388    10003.503    11186.219    21189.722    617627.87 
   39100        195.5   0.49667477 -0.00030604476    10131.138    11174.437    21305.575    616098.35 
   39200          196   0.49791902 0.0043532284    9998.6632    11202.431    21201.094    614574.17 
   39300        196.5    0.5015273 0.00039408207    9988.6539    11283.612    21272.266    613057.55 
   39400          197   0.50054762 -0.00093591898    10025.112    11261.571    21286.682    611545.93 
   39500        197.5   0.49879431 0.00066031321    10024.092    11222.124    21246.216    610039.54 
   39600          198   0.49767217  0.000631181    9980.7275    11196.877    21177.605    608539.19 
   39700        198.5   0.49903351 0.0022533719    9964.6584    11227.505    21192.164    607045.26 
   39800          199   0.49858733 0.00034853734    9957.2501    11217.467    21174.717     605558.4 
   39900        199.5   0.50281571 -0.00023906488     9980.638    11312.599    21293.237    604076.89 
   40000          200   0.49960145 0.0031946673    9981.2106    11240.283    21221.494    602601.07 
   40100        200.5   0.50110491 0.00045625336    9981.7961    11274.109    21255.905     601131.3 
   40200          201   0.49794062 0.00063004687    10167.737    11202.917    21370.654    599666.58 
   40300        201.5   0.49880317 0.0022501665     10082.86    11222.323    21305.183    598207.79 
   40400          202   0.50003049 0.0010880566    10048.646    11249.936    21298.582     596755.9 
   40500        202.5   0.50170763 -0.00041910226     10134.11    11287.669     21421.78    595309.48 
   40600          203   0.49533664 0.00090807638    10166.783    11144.331    21311.114    593867.93 
   40700        203.5   0.50112191 0.00069415479    10112.593    11274.491    21387.084    592431.95 
   40800          204   0.50014472  0.000628823    10078.813    11252.506    21331.319    591002.19 
   40900        204.5   0.50695128 0.0048003073    10099.018    11405.643    21504.661    589577.54 
   41000          205   0.50028181 -0.0028466698    10157.904     11255.59    21413.495    588160.12 
   41100        205.5   0.50184225 0.0029445132    10080.951    11290.698    21371.649    586746.42 
   41200          206   0.49865284 0.0020975111    9989.0821    11218.941    21208.023    585339.49 
   41300        206.5   0.49332656 5.5179892e-05    9941.4625    11099.108     21040.57    583937.99 
   41400          207   0.49780023 0.0020283906    9958.2641    11199.758    21158.022    582541.51 
   41500        207.5    0.4949121 -0.0010099959    10059.925     11134.78    21194.705    581150.49 
   41600          208   0.50000604 0.0015223124    9958.4802    11249.386    21207.866    579763.07 
   41700        208.5   0.49498891 0.00070461777    10173.213    11136.508    21309.721    578381.29 
   41800          209   0.50397464 -0.0012699483    10028.377    11338.674     21367.05    577006.27 
   41900        209.5   0.50457657 0.0049129306    10080.123    11352.216    21432.339    575635.83 
   42000          210   0.50032492 -0.0014760608    10192.497     11256.56    21449.057       574272 
   42100        210.5   0.50608532 0.0019034499    10051.633    11386.161    21437.793    572912.19 
   42200          211   0.50615397 0.0037693972    9996.7903    11387.705    21384.495    571557.05 
   42300        211.5   0.50530623 -0.0010117394    10147.651    11368.632    21516.284     570208.2 
   42400          212   0.50899678 0.0038490733    10125.542    11451.664    21577.206    568864.24 
   42500        212.5   0.50133184 0.0024987445     10131.94    11279.214    21411.154    567525.98 
   42600          213   0.49844261 -0.0030143994    10058.417    11214.211    21272.628    566192.83 
   42700        213.5    0.5006137 0.0025387838    10084.653    11263.057     21347.71    564863.33 
   42800          214   0.49846332 0.00064923082    10118.108    11214.677    21332.785    563539.56 
   42900        214.5   0.49359674 0.0012223867    10076.931    11105.186    21182.117    562221.34 
   43000          215   0.49849857 0.00097400109    10069.735     11215.47    21285.205     560908.1 
   43100        215.5   0.49873044 0.00027481631    10072.199    11220.687    21292.885    559599.65 
   43200          216   0.50024186 0.0021562053     10153.33    11254.692    21408.022    558295.38 
   43300        216.5   0.49690116 0.00044283998    10138.739    11179.531     21318.27    556997.26 
   43400          217   0.50233716 0.0011828391    9934.6518    11301.833    21236.484    555704.03 
   43500        217.5    0.4974687 0.0011095637    10045.047      11192.3    21237.346    554415.54 
   43600          218   0.49378873 1.7214516e-05    10130.035    11109.506     21239.54    553131.41 
   43700        218.5   0.50042855 0.0010200545    10010.509    11258.892    21269.401     551851.9 
   43800          219   0.49507377 0.0034761803    10095.599    11138.417    21234.017    550577.01 
   43900        219.5    0.4964734 0.00087464361    10045.788    11169.907    21215.695    549307.35 
   44000          220   0.49643653 0.0016206085    10094.603    11169.077     21263.68    548042.11 
   44100        220.5   0.49700945 -0.00067785651    10082.051    11181.967    21264.018    546781.95 
   44200          221   0.50103549 0.0025655485    9994.4895    11272.547    21267.036    545526.55 
   44300        221.5   0.49525831  0.002031651    10136.599    11142.569    21279.168    544275.89 
   44400          222   0.49769867 -0.0019898381    10153.219    11197.473    21350.692    543030.21 
   44500        222.5   0.49308558 0.0020404921    10123.196    11093.686    21216.882    541788.11 
   44600          223   0.49795664 0.0013566046    10063.574    11203.277    21266.851    540551.27 
   44700        223.5   0.50201021 -4.4710666e-05    10104.534    11294.477    21399.011    539319.39 
   44800          224   0.50312134 0.0015465535    10108.214    11319.475    21427.689    538091.48 
   44900        224.5   0.50461898 0.00089085182    10043.181     11353.17    21396.351    536868.43 
   45000          225   0.50361165 0.0022893705    10042.157    11330.507    21372.663    535649.86 
   45100        225.5   0.50510681 0.00012860254    10087.951    11364.146    21452.097    534435.91 
   45200          226   0.50109285  0.001187945    10040.217    11273.837    21314.054    533226.15 
   45300        226.5   0.50164764 0.0025294528    9996.5978    11286.319    21282.917    532020.41 
   45400          227   0.50285171 0.0023686634    9981.9514    11313.409    21295.361    530819.04 
   45500        227.5   0.49687597 0.0002215721    10031.186    11178.964    21210.149    529623.01 
   45600          228   0.49940487 0.0016764373    10102.637    11235.861    21338.497    528431.51 
   45700        228.5   0.49780093 0.00015003659    10025.105    11199.774    21224.879    527243.94 
   45800          229   0.49859575 0.0034124493    10134.636    11217.656    21352.293    526059.95 
   45900        229.5   0.49934868  0.001187687    10131.094    11234.596     21365.69    524881.98 
   46000          230   0.49800023 0.00082489713    10049.943    11204.258    21254.201    523708.14 
   46100        230.5   0.50377768 0.0014559124    10009.341    11334.242    21343.583    522538.35 
   46200          231   0.49934239  0.001549683    10170.958    11234.455    21405.413    521371.88 
   46300        231.5   0.49853229 0.00018939723    10036.145    11216.229    21252.374    520209.73 
   46400          232    0.4994112 0.0016367833     9903.877    11236.003     21139.88    519052.28 
   46500        232.5   0.49612196 0.0033133566    10062.458        11162    21224.458    517899.44 
   46600          233   0.50004137 0.00093025023    10158.686    11250.181    21408.867    516750.65 
   46700        233.5    0.4975219 0.0016241411    10142.296    11193.496    21335.793    515605.54 
   46800          234   0.50189388 0.00086237785     9900.443    11291.859    21192.302    514464.43 
   46900        234.5   0.50138914 0.0012280885     10029.09    11280.504    21309.594    513327.39 
   47000          235    0.5062622 0.0010625271    10091.797     11390.14    21481.937    512193.81 
   47100        235.5   0.50347451 0.00079639423    10021.043    11327.421    21348.464    511064.04 
   47200          236   0.50225649  0.001274996    10097.096    11300.018    21397.113     509938.2 
   47300        236.5   0.50138058 0.0026131806    10012.607    11280.311    21292.919    508817.25 
   47400          237   0.49898855 0.0015321126     10012.81    11226.494    21239.303    507700.55 
   47500        237.5   0.49424963 0.00025539473    10068.534    11119.875    21188.409    506587.12 
   47600          238   0.49855407 -0.00030841247    10042.186    11216.719    21258.905    505477.57 
   47700        238.5   0.49627594 0.0030096428    10040.917    11165.464    21206.382    504372.49 
   47800          239   0.49781781 -0.00019185887    9877.6609    11200.154    21077.815    503272.26 
   47900        239.5   0.49557974 0.0015473562    10045.906    11149.801    21195.707    502174.97 
   48000          240   0.49796366 0.0020259254    10000.886    11203.435    21204.322    501081.14 
   48100        240.5   0.49903621 -0.0010888878    9987.5536    11227.566     21215.12    499991.66 
   48200          241   0.49625692 0.0048244984      9999.88    11165.036    21164.916    498905.64 
   48300        241.5   0.49966476 -0.001558449    10016.668    11241.708    21258.375    497824.78 
   48400          242   0.49917216 0.0027868119    9991.4669    11230.625    21222.092    496746.55 
   48500        242.5   0.49843658  0.002808389    10081.281    11214.075    21295.356    495672.77 
   48600          243    0.4971766 0.0016006791    9988.4039    11185.728    21174.132    494603.07 
   48700        243.5    0.4985428 0.0018834548     10040.53    11216.465    21256.995    493536.62 
   48800          244   0.49951187 -0.0014326532    10076.194    11238.268    21314.462    492474.38 
   48900        244.5    0.5015196 0.0021794158    9910.4588    11283.439    21193.897    491415.13 
   49000          245     0.498988 0.0012722296    10168.888    11226.482     21395.37    490359.89 
   49100        245.5    0.5000712 -0.00030302968    10102.677    11250.852    21353.529    489308.18 
   49200          246    0.4962016 0.0027531134    10078.338    11163.792     21242.13    488258.83 
   49300        246.5   0.49866538 -0.0017538875     9944.283    11219.223    21163.506    487213.53 
   49400          247   0.49789896 0.0034049746    10010.895     11201.98    21212.874    486171.32 
   49500        247.5   0.49674039 0.0021549753    10127.975    11175.914    21303.888    485133.49 
   49600          248   0.50016786 -0.0020859196    10102.194    11253.027    21355.221    484099.88 
   49700        248.5    0.5010433  0.001425832    10170.672    11272.723    21443.395     483069.7 
   49800          249   0.49821798 0.00061542975    10149.705    11209.157    21358.863    482042.33 
   49900        249.5   0.50150357 0.0002403195    10130.838    11283.078    21413.916    481017.88 
   50000          250   0.50198685 0.0011868461    10007.348    11293.951    21301.299    479997.71 
Loop time of 228.624 on 1 procs for 50000 steps with 15000 atoms

Performance: 94478.293 tau/day, 218.700 timesteps/s
98.6% CPU use with 1 MPI tasks x 1 OpenMP threads

MPI task timing breakdown:
Section |  min time  |  avg time  |  max time  |%varavg| %total
---------------------------------------------------------------
Pair    | 9.1311     | 9.1311     | 9.1311     |   0.0 |  3.99
Bond    | 88.218     | 88.218     | 88.218     |   0.0 | 38.59
Neigh   | 49.666     | 49.666     | 49.666     |   0.0 | 21.72
Comm    | 3.6006     | 3.6006     | 3.6006     |   0.0 |  1.57
Output  | 1.5394     | 1.5394     | 1.5394     |   0.0 |  0.67
Modify  | 74.069     | 74.069     | 74.069     |   0.0 | 32.40
Other   |            | 2.4        |            |       |  1.05

Nlocal:    15000 ave 15000 max 15000 min
Histogram: 1 0 0 0 0 0 0 0 0 0
Nghost:    1720 ave 1720 max 1720 min
Histogram: 1 0 0 0 0 0 0 0 0 0
Neighs:    542 ave 542 max 542 min
Histogram: 1 0 0 0 0 0 0 0 0 0

Total # of neighbors = 542
Ave neighs/atom = 0.0361333
Ave special neighs/atom = 5.2
Neighbor list builds = 4834
Dangerous builds = 3343

unfix 2
unfix 3
fix 4 all nve
fix 5 all langevin ${T} ${T} 1 123456
fix 5 all langevin 0.5 ${T} 1 123456
fix 5 all langevin 0.5 0.5 1 123456
fix recen1 all recenter INIT INIT INIT


# RUN
run ${run_steps}
run 2000000
Per MPI rank memory allocation (min/avg/max) = 52.64 | 52.64 | 52.64 Mbytes
Step Time Temp Press PotEng KinEng TotEng Volume 
   50000          250   0.50198685 0.0011868461    10007.348    11293.951    21301.299    479997.71 
   50100        250.5   0.49755565 0.00043703997    10142.747    11194.256    21337.003    479997.71 
   50200          251   0.50118748 0.0013945707    10135.621    11275.967    21411.588    479997.71 
   50300        251.5    0.5011091 -0.00043747388     10154.99    11274.203    21429.193    479997.71 
   50400          252   0.50324204 0.0011799258    9989.4109    11322.191    21311.602    479997.71 
   50500        252.5   0.50013933 0.0012976855     10068.55    11252.385    21320.935    479997.71 
   50600          253   0.49764422  0.001618185    10136.419    11196.249    21332.667    479997.71 
   50700        253.5   0.50223738 0.00071377238    10064.322    11299.588     21363.91    479997.71 
   50800          254   0.50004661 0.00047951057    10098.991    11250.299     21349.29    479997.71 
   50900        254.5    0.5001488 0.0034491277    10184.227    11252.598    21436.825    479997.71 
   51000          255   0.50295459 -0.0018325993    10153.832    11315.724    21469.556    479997.71 
   51100        255.5   0.50520877 0.0029190143    10064.179    11366.439    21430.618    479997.71 
   51200          256   0.50064756  0.001432043    10134.645    11263.819    21398.464    479997.71 
   51300        256.5   0.49949457 -0.00051145555     10186.78    11237.879    21424.659    479997.71 
   51400          257   0.50245414 0.00085651817    10059.443    11304.465    21363.908    479997.71 
   51500        257.5   0.50426173 7.5453134e-05    9895.5712    11345.133    21240.704    479997.71 
   51600          258   0.50307516 0.00092025835    10003.732    11318.436    21322.169    479997.71 
   51700        258.5   0.49959866 0.0040514513    10080.848     11240.22    21321.068    479997.71 
   51800          259   0.49961683  0.001883881    10076.829    11240.629    21317.459    479997.71 
   51900        259.5    0.4986971 -0.0008034948    10172.099    11219.937    21392.035    479997.71 
   52000          260   0.50571676 0.0021280948     10050.72    11377.869    21428.589    479997.71 
   52100        260.5    0.5039652 -0.00010372074    10126.984    11338.461    21465.445    479997.71 
   52200          261   0.50120064  0.001750005    10046.992    11276.263    21323.255    479997.71 
   52300        261.5   0.49643592 -0.0011940782    10163.119    11169.064    21332.182    479997.71 
   52400          262    0.5014692 0.0003471482    10040.138    11282.305    21322.442    479997.71 
   52500        262.5   0.50350057 0.0013513612    10025.928    11328.008    21353.936    479997.71 
   52600          263   0.49845054 0.00054434202    10074.353     11214.39    21288.742    479997.71 
   52700        263.5   0.49716763 0.0017042528    9999.1048    11185.526    21184.631    479997.71 
   52800          264   0.49877679 0.00040277363    9990.6477     11221.73    21212.377    479997.71 
   52900        264.5   0.49678266 0.0016549519    10030.737    11176.865    21207.602    479997.71 
   53000          265   0.50263682 -0.0012773008    10012.104    11308.575    21320.678    479997.71 
   53100        265.5     0.497144 0.0016107702    10110.228    11184.994    21295.223    479997.71 
   53200          266   0.49989697 0.0041493312    10054.778    11246.932     21301.71    479997.71 
   53300        266.5   0.49569917 -0.00062648742    10148.934    11152.488    21301.422    479997.71 
   53400          267   0.49760589 0.00086439983     10165.75    11195.386    21361.136    479997.71 
   53500        267.5    0.4988422  0.002864291    10121.324    11223.201    21344.525    479997.71 
   53600          268   0.50026132 0.00033259298    9921.2803    11255.129     21176.41    479997.71 
   53700        268.5   0.49799041 0.0011586714    10017.774    11204.037    21221.811    479997.71 
   53800          269     0.495668 -0.0019445672    10247.226    11151.787    21399.013    479997.71 
   53900        269.5   0.49785159 0.0011130228    10049.235    11200.914    21250.149    479997.71 
   54000          270   0.49833807 0.0034930947    10086.863    11211.859    21298.722    479997.71 
   54100        270.5   0.49702992 -0.0013953406    10100.545    11182.428    21282.973    479997.71 
   54200          271   0.49828581 0.00043520363    9944.8363    11210.683     21155.52    479997.71 
   54300        271.5   0.49930437 0.0033174974    10035.796    11233.599    21269.395    479997.71 
   54400          272   0.49790893 0.0017868931    10038.034    11202.204    21240.238    479997.71 
   54500        272.5   0.49628107 -0.0012180968    10195.922     11165.58    21361.501    479997.71 
   54600          273   0.49919078 -0.00065201396     10137.95    11231.044    21368.994    479997.71 
   54700        273.5    0.5029672 0.00022920406    10225.427    11316.007    21541.435    479997.71 
   54800          274    0.5023989 0.0015467316    10196.127    11303.222    21499.349    479997.71 
   54900        274.5   0.50228938 -0.00078903682    10142.352    11300.758    21443.109    479997.71 
   55000          275   0.50162854 0.0024539246    10123.496     11285.89    21409.386    479997.71 
   55100        275.5   0.49878246 -5.1268967e-05    10139.333    11221.857     21361.19    479997.71 
   55200          276   0.49939206 0.0023761728    10154.561    11235.572    21390.133    479997.71 
   55300        276.5   0.50120714 0.0022846358    10079.404    11276.409    21355.813    479997.71 
   55400          277   0.49180637 -0.0019347217    10182.416    11064.906    21247.322    479997.71 
   55500        277.5   0.50260576  0.001067007    10016.992    11307.876    21324.868    479997.71 
   55600          278   0.50135329 0.0022119937    10031.766    11279.697    21311.463    479997.71 
   55700        278.5   0.49406282 -0.0015441503     10162.29    11115.672    21277.963    479997.71 
   55800          279   0.50085753  0.002262641    9991.0571    11268.543      21259.6    479997.71 
   55900        279.5   0.50301564 -0.0028653739    9954.1571    11317.097    21271.255    479997.71 
   56000          280   0.49789588 0.0058881833    10026.202     11201.91    21228.112    479997.71 
   56100        280.5   0.49881784 0.0016898707     10070.38    11222.653    21293.033    479997.71 
   56200          281   0.49785154 0.0011088549       9992.3    11200.913    21193.213    479997.71 
   56300        281.5   0.50102975 0.0041163001    9965.0314    11272.418    21237.449    479997.71 
   56400          282   0.50186972 -0.0013437673    10160.092    11291.316    21451.408    479997.71 
   56500        282.5   0.50432763 0.0020686635    10143.068    11346.615    21489.683    479997.71 
   56600          283   0.50266229 -0.00095151664    10115.296    11309.148    21424.444    479997.71 
   56700        283.5   0.49830092 0.0013997093    10075.947    11211.023     21286.97    479997.71 
   56800          284    0.5020025 0.0015033903     10018.72    11294.303    21313.023    479997.71 
   56900        284.5   0.50313858 0.0029216832    10132.113    11319.863    21451.976    479997.71 
   57000          285   0.50343066 0.0012971782    10131.658    11326.435    21458.093    479997.71 
   57100        285.5   0.49482632 0.0032799257    10158.972     11132.85    21291.823    479997.71 
   57200          286   0.50161114 -0.00017791421    10000.279    11285.498    21285.777    479997.71 
   57300        286.5    0.5032512 0.0021287243    9989.5147    11322.397    21311.912    479997.71 
   57400          287    0.4957453 0.0027245027    10140.886    11153.526    21294.411    479997.71 
   57500        287.5   0.49846638 0.00067331624    10116.792    11214.746    21331.538    479997.71 
   57600          288   0.49620897 0.0002339626    10143.581    11163.958    21307.539    479997.71 
   57700        288.5   0.50307547 0.0035957484    10084.639    11318.443    21403.083    479997.71 
   57800          289   0.50054297 0.0022152243    10079.084    11261.466     21340.55    479997.71 
   57900        289.5   0.50053309 -0.0040033572    10148.992    11261.244    21410.236    479997.71 
   58000          290   0.50125187 0.0043762706    10128.766    11277.415    21406.181    479997.71 
   58100        290.5   0.50124786 0.0013363669    10028.535    11277.325     21305.86    479997.71 
   58200          291   0.50147683 -0.0011134069    10037.975    11282.476    21320.452    479997.71 
   58300        291.5   0.49714878 0.0020245342    10158.018    11185.102     21343.12    479997.71 
   58400          292   0.50022562 0.00078284498    10147.474    11254.326      21401.8    479997.71 
   58500        292.5   0.49537348 0.0021776792    10084.556     11145.16    21229.717    479997.71 
   58600          293   0.49500204 0.00090271281     10200.32    11136.803    21337.124    479997.71 
   58700        293.5   0.49840733 -0.0013869134    10189.866    11213.417    21403.283    479997.71 
   58800          294   0.50595235 0.0021748459     10034.78    11383.169    21417.949    479997.71 
   58900        294.5   0.49749351 0.00036185087    10041.502    11192.858     21234.36    479997.71 
   59000          295   0.49863354 0.00056855944    10030.137    11218.507    21248.643    479997.71 
   59100        295.5   0.49709463 -0.00063247665    10075.675    11183.884    21259.558    479997.71 
   59200          296   0.50117401 0.0027994575    9922.6053    11275.664    21198.269    479997.71 
   59300        296.5    0.4990234 0.0027543283    9921.9617    11227.278     21149.24    479997.71 
   59400          297   0.50194743 -0.00038188741    10120.688    11293.064    21413.752    479997.71 
   59500        297.5   0.49984163 0.0028311923    10042.442    11245.687    21288.129    479997.71 
   59600          298   0.49903785 0.0030136179    10086.182    11227.603    21313.785    479997.71 
   59700        298.5   0.49476709 -0.0043821305    10080.373    11131.517     21211.89    479997.71 
   59800          299   0.49581703 0.0017331005    9986.9817    11155.139    21142.121    479997.71 
   59900        299.5   0.49668806 0.00089496371    10007.344    11174.736     21182.08    479997.71 
   60000          300   0.49441281 0.00043639264    10061.719    11123.547    21185.266    479997.71 
   60100        300.5   0.50180683 0.0040996238     10008.59    11289.901    21298.491    479997.71 
   60200          301    0.4985761  0.003576145    10076.763    11217.214    21293.978    479997.71 
   60300        301.5   0.50351361 -0.00091292415    10071.244    11328.301    21399.545    479997.71 
   60400          302   0.50236781 0.0041645238    10120.021    11302.522    21422.543    479997.71 
   60500        302.5   0.49816995 -0.0015700447    10134.889    11208.077    21342.966    479997.71 
   60600          303   0.50140339 0.0048931992    10122.639    11280.824    21403.463    479997.71 
   60700        303.5   0.50086709 0.0008891146    10096.858    11268.758    21365.617    479997.71 
   60800          304   0.50376181 -0.0036026421    10097.555    11333.885    21431.441    479997.71 
   60900        304.5   0.50040146 0.0051452542     10227.02    11258.282    21485.302    479997.71 
   61000          305   0.50855096 0.0015246352    10076.838    11441.634    21518.472    479997.71 
   61100        305.5   0.50386771 -9.9581108e-05    10164.538    11336.268    21500.805    479997.71 
   61200          306   0.50720695 0.00063789121    10092.182    11411.395    21503.578    479997.71 
   61300        306.5   0.50447566 -0.00029401122     10181.17    11349.946    21531.115    479997.71 
   61400          307   0.50079623 0.0016820586    10197.413    11267.164    21464.577    479997.71 
   61500        307.5   0.50358017 0.0029492279     9889.613    11329.799    21219.412    479997.71 
   61600          308   0.49784981 -0.0010021348    10085.221    11200.874    21286.095    479997.71 
   61700        308.5   0.49779082  0.000805444    10031.942    11199.547    21231.488    479997.71 
   61800          309   0.50821266 0.0014859948    10105.844    11434.022    21539.867    479997.71 
   61900        309.5   0.50700859 8.7795756e-05    10158.919    11406.933    21565.852    479997.71 
   62000          310   0.50311869 -0.0004926725     10074.46    11319.416    21393.875    479997.71 
   62100        310.5   0.49890678 0.0027034075     10032.69    11224.654    21257.344    479997.71 
   62200          311   0.49966583 0.0013850862    10139.796    11241.732    21381.528    479997.71 
   62300        311.5   0.50040443 -0.0013139002    10081.561    11258.349     21339.91    479997.71 
   62400          312   0.49785035 0.0049914395    10107.819    11200.886    21308.705    479997.71 
   62500        312.5   0.50162049 0.0008240498    9971.6917    11285.709      21257.4    479997.71 
   62600          313   0.50076084 -0.0016184873    9975.0308    11266.368    21241.399    479997.71 
   62700        313.5   0.50003545 0.0028811428     10023.57    11250.047    21273.618    479997.71 
   62800          314   0.49869806 0.0011099781    10136.142    11219.958    21356.101    479997.71 
   62900        314.5   0.50436485 -0.00098046887    10061.283    11347.453    21408.736    479997.71 
   63000          315   0.50074945 0.00056605065    10163.637    11266.112    21429.749    479997.71 
   63100        315.5   0.51002802 0.00069932121    10080.651    11474.865    21555.516    479997.71 
   63200          316   0.50408305 -0.00056463492    10159.184    11341.113    21500.297    479997.71 
   63300        316.5   0.50165862  0.003776738    10127.695    11286.567    21414.261    479997.71 
   63400          317   0.50262841 -0.00044744448    10067.841    11308.385    21376.226    479997.71 
   63500        317.5   0.50728152 -0.00019121571    9995.2963    11413.073     21408.37    479997.71 
   63600          318   0.50586978 0.0027550908    10000.672    11381.311    21381.983    479997.71 
   63700        318.5   0.50606091 -0.00093896023    10140.007    11385.611    21525.618    479997.71 
   63800          319   0.50709834  0.001400519    10162.185    11408.952    21571.137    479997.71 
   63900        319.5   0.50466464 0.0040475024    10203.247    11354.197    21557.445    479997.71 
   64000          320   0.49789632 -0.0030775168    10179.269     11201.92     21381.19    479997.71 
   64100        320.5   0.49899051 0.0010072768    10123.315    11226.538    21349.853    479997.71 
   64200          321   0.49578041 -0.0014356169    10051.816    11154.316    21206.132    479997.71 
   64300        321.5   0.49571226 0.0015130902    10118.302    11152.782    21271.084    479997.71 
   64400          322   0.50418918  0.004993238    10046.217      11343.5    21389.717    479997.71 
   64500        322.5    0.5003824 -0.00041109597    9986.4722    11257.853    21244.326    479997.71 
   64600          323   0.49516862 0.0012718483    10073.347    11140.551    21213.898    479997.71 
   64700        323.5   0.50000042  0.001590689    10013.424    11249.259    21262.683    479997.71 
   64800          324   0.49816626 0.00075839852    9974.0508    11207.993    21182.044    479997.71 
   64900        324.5   0.49221407 -2.9561351e-05     10098.83    11074.078    21172.908    479997.71 
   65000          325   0.50196253 0.0030429207    10031.068    11293.404    21324.472    479997.71 
   65100        325.5   0.49766194 -0.0014335713    10047.635    11196.647    21244.282    479997.71 
   65200          326   0.49672259 0.00024137954     10007.83    11175.513    21183.343    479997.71 
   65300        326.5   0.49782711 0.0021364333    10053.653    11200.363    21254.016    479997.71 
   65400          327   0.50126947 -0.00095817679    10050.347    11277.811    21328.159    479997.71 
   65500        327.5   0.50020609 0.0005757395    10090.549    11253.887    21344.436    479997.71 
   65600          328   0.49422254 0.0014057774    10020.897    11119.266    21140.163    479997.71 
   65700        328.5    0.4950104 0.0049813834    10075.413    11136.992    21212.404    479997.71 
   65800          329   0.49646425 -0.00089767191    10109.382    11169.701    21279.083    479997.71 
   65900        329.5   0.49817517 0.00071764907    10027.826    11208.194     21236.02    479997.71 
   66000          330   0.49875291 0.0023094352    10111.595    11221.192    21332.787    479997.71 
   66100        330.5   0.50046788 0.0001554863    10100.938    11259.777    21360.714    479997.71 
   66200          331   0.49747564 0.0017389969    10084.087    11192.456    21276.542    479997.71 
   66300        331.5    0.4920546 -0.0020660142     10109.52     11070.49    21180.011    479997.71 
   66400          332   0.49396569 0.0045869826      10000.3    11113.487    21113.787    479997.71 
   66500        332.5   0.49771305 -0.002056512    10018.032    11197.797    21215.829    479997.71 
   66600          333   0.49767675 -0.0011358015    10125.742     11196.98    21322.722    479997.71 
   66700        333.5   0.49746158 0.0064460277    10096.173    11192.139    21288.313    479997.71 
   66800          334   0.49705589 0.0011525508    9975.6655    11183.012    21158.678    479997.71 
   66900        334.5   0.50006027 -0.0046267779    10001.177    11250.606    21251.783    479997.71 
   67000          335    0.5002741 0.0027716835    10213.149    11255.417    21468.566    479997.71 
   67100        335.5   0.50262413 0.0026868214    10156.592    11308.289    21464.881    479997.71 
   67200          336   0.49294014 0.00011213605    10212.763    11090.414    21303.176    479997.71 
   67300        336.5   0.50265861 0.0012533139    10008.847    11309.065    21317.911    479997.71 
   67400          337   0.49545795 0.0017111123    10083.479    11147.061    21230.539    479997.71 
   67500        337.5   0.49629218 0.0014678937     10084.87     11165.83      21250.7    479997.71 
   67600          338   0.49450697 0.00027479458    10040.283    11125.665    21165.948    479997.71 
   67700        338.5   0.49848312 3.4714918e-06    10006.812    11215.123    21221.935    479997.71 
   67800          339   0.50322243 0.0025469602    10096.256     11321.75    21418.005    479997.71 
   67900        339.5   0.50103881 0.0016947401    10021.777    11272.622    21294.398    479997.71 
   68000          340   0.49361808 -0.0027312826    10093.772    11105.666    21199.439    479997.71 
   68100        340.5   0.49199311 0.0010338099    9970.6013    11069.107    21039.708    479997.71 
   68200          341   0.49827494  0.003296883    10009.201    11210.439     21219.64    479997.71 
   68300        341.5    0.4989254 -0.00043241442    10069.064    11225.073    21294.137    479997.71 
   68400          342   0.49748129 0.00081278494    10031.051    11192.583    21223.634    479997.71 
   68500        342.5   0.49757126 0.0022219129    9932.6555    11194.607    21127.262    479997.71 
   68600          343   0.50193335 -0.0028268138    9992.8023    11292.748     21285.55    479997.71 
   68700        343.5   0.50158678 0.0050288354    10053.003     11284.95    21337.953    479997.71 
   68800          344   0.49895737 0.00026218053     9928.929    11225.792    21154.722    479997.71 
   68900        344.5   0.50056958 0.0035079509    9879.4388    11262.065    21141.503    479997.71 
   69000          345   0.49812948 0.0019367477    9956.9326    11207.166    21164.099    479997.71 
   69100        345.5   0.49459698 -0.00069154453     9935.585     11127.69    21063.275    479997.71 
   69200          346   0.49493933 0.00098902506    10014.368    11135.393    21149.761    479997.71 
   69300        346.5    0.4984733 -0.00049222358    10062.871    11214.902    21277.773    479997.71 
   69400          347   0.49795845 0.0012290582    10046.008    11203.318    21249.326    479997.71 
   69500        347.5   0.49555842 -0.0011585857    10205.437    11149.321    21354.758    479997.71 
   69600          348   0.49831307 0.0029221559     10042.44    11211.297    21253.736    479997.71 
   69700        348.5   0.49358045 0.00037931547    10124.901     11104.82     21229.72    479997.71 
   69800          349   0.50017209 -0.001289988    10109.305    11253.122    21362.426    479997.71 
   69900        349.5   0.50949018 0.0022491619    9963.0727    11462.765    21425.837    479997.71 
   70000          350   0.50205551  0.002907048    10119.594    11295.496     21415.09    479997.71 
   70100        350.5   0.50060432 0.00030723646    10142.716    11262.846    21405.563    479997.71 
   70200          351   0.49961243 -3.7767169e-05    10012.709     11240.53    21253.239    479997.71 
   70300        351.5   0.49725225 0.0010203507    10067.546     11187.43    21254.976    479997.71 
   70400          352   0.49810685 0.00013541832    9945.9041    11206.657    21152.561    479997.71 
   70500        352.5   0.49479433 0.0028567044    10144.981     11132.13    21277.111    479997.71 
   70600          353    0.4929356 0.0010950513    10071.566    11090.311    21161.877    479997.71 
   70700        353.5   0.50003251 -0.00056924531     9990.476    11249.981    21240.457    479997.71 
   70800          354   0.49981002 7.8319795e-05    10097.891    11244.976    21342.867    479997.71 
   70900        354.5    0.5017939 0.00073772046    10073.699     11289.61    21363.309    479997.71 
   71000          355    0.5004932 -0.0020169306    10146.631    11260.346    21406.977    479997.71 
   71100        355.5   0.50428778 0.00044868542    10197.348    11345.719    21543.067    479997.71 
   71200          356   0.49841524 0.00048606053    10163.777    11213.595    21377.372    479997.71 
   71300        356.5   0.49854329 0.0021451771    10138.901    11216.476    21355.377    479997.71 
   71400          357    0.5033579 -0.00099668937    10091.341    11324.798    21416.139    479997.71 
   71500        357.5   0.49845047 0.0011344139    10120.149    11214.388    21334.537    479997.71 
   71600          358   0.49692474 0.0036794023     10101.13    11180.061    21281.191    479997.71 
   71700        358.5   0.50311356 -0.00050827091    10009.094      11319.3    21328.395    479997.71 
   71800          359   0.49651687 -0.00017191578    10129.934    11170.885    21300.819    479997.71 
   71900        359.5   0.49845687 0.00023547375    10045.535    11214.532    21260.067    479997.71 
   72000          360   0.50006457   0.00126593    10068.592    11250.703    21319.295    479997.71 
   72100        360.5   0.50202197 0.0028101145    10053.282    11294.741    21348.024    479997.71 
   72200          361   0.49942122 0.0018704917    10108.798    11236.228    21345.027    479997.71 
   72300        361.5   0.50346268 6.0767626e-05    10119.038    11327.155    21446.193    479997.71 
   72400          362   0.50843044  0.004273362    10146.354    11438.922    21585.276    479997.71 
   72500        362.5   0.50492924 0.0019422564    10203.328    11360.151    21563.478    479997.71 
   72600          363    0.5044535 -0.00010302916    10078.957    11349.447    21428.404    479997.71 
   72700        363.5   0.50140569 0.0012388315    10067.787    11280.876    21348.662    479997.71 
   72800          364   0.50252941 0.0016754215    9949.7268    11306.158    21255.885    479997.71 
   72900        364.5   0.50580959 0.00015264281    10031.033    11379.957     21410.99    479997.71 
   73000          365   0.50080223 0.0039187257    10027.498    11267.299    21294.797    479997.71 
   73100        365.5   0.50065211 -0.00055944267    9997.9774    11263.922    21261.899    479997.71 
   73200          366   0.49455873 0.0029925987     10047.66     11126.83    21174.489    479997.71 
   73300        366.5   0.49654095 0.0034224884    10087.149    11171.427    21258.575    479997.71 
   73400          367   0.49873392 -0.00036536233    10107.424    11220.765    21328.189    479997.71 
   73500        367.5   0.49846205 0.00089248558    10131.268    11214.648    21345.916    479997.71 
   73600          368   0.50419316 0.0018680065    10083.078     11343.59    21426.668    479997.71 
   73700        368.5   0.50029415 -0.00095039263    10137.763    11255.868    21393.631    479997.71 
   73800          369      0.49847 0.0017829891    10035.398    11214.827    21250.225    479997.71 
   73900        369.5   0.49505665 0.00057310895    9960.7477    11138.032     21098.78    479997.71 
   74000          370   0.49878894 0.0029420123    9931.7714    11222.003    21153.774    479997.71 
[...]
 3874700       9123.5   0.50175785  0.019319007    10174.146    11288.799    21462.944    133082.72 
 3874800         9124   0.49790496 0.0054344278    10213.439    11202.115    21415.554    133082.72 
 3874900       9124.5   0.49982955 0.0024878538    10154.043    11245.415    21399.458    133082.72 
 3875000         9125   0.50018661  0.013102664    10207.859    11253.448    21461.307    133082.72 
 3875100       9125.5   0.50359472 0.0010487391    10075.277    11330.126    21405.403    133082.72 
 3875200         9126    0.4982004  0.010434977    10055.007    11208.762    21263.769    133082.72 
 3875300       9126.5   0.49285132  0.011505978    10056.025    11088.415     21144.44    133082.72 
 3875400         9127   0.49316064  0.010569029    10062.797    11095.375    21158.171    133082.72 
 3875500       9127.5   0.49999203  0.015288918    10121.185    11249.071    21370.255    133082.72 
 3875600         9128   0.49649573 0.0036421174    10209.692    11170.409    21380.101    133082.72 
 3875700       9128.5   0.50082694 0.0082935279     10093.07    11267.855    21360.925    133082.72 
 3875800         9129   0.49907146  0.017598634    10079.728    11228.359    21308.087    133082.72 
 3875900       9129.5   0.49942041 0.0028080153    10099.658     11236.21    21335.868    133082.72 
 3876000         9130   0.50563926 0.0080545995    10046.414    11376.125    21422.538    133082.72 
 3876100       9130.5    0.5048078 0.0082134967    10071.379    11357.418    21428.797    133082.72 
 3876200         9131   0.50030936  0.012710806    10211.066     11256.21    21467.276    133082.72 
 3876300       9131.5   0.50172983  0.010356456    10128.662    11288.169     21416.83    133082.72 
 3876400         9132   0.50194117 0.0092629976    10198.787    11292.923     21491.71    133082.72 
 3876500       9132.5    0.4983798   0.01591407    10080.044    11212.798    21292.842    133082.72 
 3876600         9133   0.49527223 0.0063563343     10084.69    11142.882    21227.572    133082.72 
 3876700       9133.5   0.49954109  0.010852824    10060.072    11238.925    21298.997    133082.72 
 3876800         9134    0.4976723  0.012411924    10014.266     11196.88    21211.146    133082.72 
 3876900       9134.5   0.50063544 0.0056587998    9997.8062    11263.546    21261.353    133082.72 
 3877000         9135   0.49694022 -0.0023855351    10024.094     11180.41    21204.504    133082.72 
 3877100       9135.5    0.5030647  0.017163567    10020.272    11318.201    21338.473    133082.72 
 3877200         9136   0.50221002  0.016489116    10061.046    11298.972    21360.018    133082.72 
 3877300       9136.5    0.5003974 -0.0020763396    10138.402    11258.191    21396.593    133082.72 
 3877400         9137   0.50217021  0.015373755     10152.82    11298.076    21450.896    133082.72 
 3877500       9137.5    0.5037013  0.007438887    10075.955    11332.524    21408.479    133082.72 
 3877600         9138    0.5006207  0.015320815    10146.344    11263.215    21409.559    133082.72 
 3877700       9138.5   0.50095765 0.0064732086    10144.634    11270.796     21415.43    133082.72 
 3877800         9139   0.49634084 0.0096574325    10043.888    11166.924    21210.813    133082.72 
 3877900       9139.5   0.49624644 0.0093563343    10154.193      11164.8    21318.994    133082.72 
 3878000         9140   0.50076403 0.0042974806    10028.105    11266.439    21294.545    133082.72 
 3878100       9140.5     0.497708 0.0075987477    10049.752    11197.683    21247.435    133082.72 
 3878200         9141   0.49518738  0.016394972    10018.634    11140.973    21159.607    133082.72 
 3878300       9141.5   0.49856961 0.00096757539    10003.089    11217.068    21220.157    133082.72 
 3878400         9142   0.49959508 0.0051759142    10038.549     11240.14    21278.689    133082.72 
 3878500       9142.5   0.50222312  0.013067947      10041.1    11299.267    21340.367    133082.72 
 3878600         9143   0.50678601  0.018508019    9975.5808    11401.925    21377.506    133082.72 
 3878700       9143.5   0.50114488  0.010870859    10099.327    11275.008    21374.335    133082.72 
 3878800         9144   0.49819248 0.0098718425    10168.587    11208.584     21377.17    133082.72 
 3878900       9144.5   0.49738847  0.010584161     10224.44    11190.494    21414.934    133082.72 
 3879000         9145   0.49956559 0.0067145476     10067.28    11239.476    21306.756    133082.72 
 3879100       9145.5   0.50042679  0.014275006    10099.489    11258.852    21358.341    133082.72 
 3879200         9146   0.50001882  0.010834669    10159.806    11249.673    21409.479    133082.72 
 3879300       9146.5   0.49893078 0.0063187332    10126.632    11225.194    21351.826    133082.72 
 3879400         9147   0.50119881 -0.0055899934    10124.259    11276.221     21400.48    133082.72 
 3879500       9147.5    0.4978899  0.017199543    10112.004    11201.776     21313.78    133082.72 
 3879600         9148   0.49655294 0.0062446415    10207.302    11171.696    21378.998    133082.72 
 3879700       9148.5    0.4993754 0.0078626952    10128.262    11235.197    21363.459    133082.72 
 3879800         9149   0.50264466  0.022720252    9993.1426    11308.751    21301.894    133082.72 
 3879900       9149.5   0.49868356 0.0012345935    10032.688    11219.632     21252.32    133082.72 
 3880000         9150   0.50008845 0.0036319739    10043.013     11251.24    21294.253    133082.72 
 3880100       9150.5   0.49752849  0.014241254    10173.072    11193.645    21366.717    133082.72 
 3880200         9151   0.49564616 0.0071865477    10150.125    11151.295     21301.42    133082.72 
 3880300       9151.5    0.4956394  0.011996097    10195.889    11151.143    21347.032    133082.72 
 3880400         9152   0.50451269 0.0055870415    10067.596    11350.779    21418.375    133082.72 
 3880500       9152.5   0.49956552 -0.00097095725    10045.939    11239.475    21285.414    133082.72 
 3880600         9153    0.4975393  0.012380187    10132.942    11193.888     21326.83    133082.72 
 3880700       9153.5   0.49745958 -0.00026505002    10099.259    11192.094    21291.353    133082.72 
 3880800         9154    0.4984193  0.011140736    9947.6919    11213.687    21161.379    133082.72 
 3880900       9154.5   0.50167246  0.011441661    10127.894    11286.878    21414.772    133082.72 
 3881000         9155   0.49854945 0.0016147136    10104.031    11216.615    21320.645    133082.72 
 3881100       9155.5    0.5007529  0.016406649    10012.417    11266.189    21278.606    133082.72 
 3881200         9156   0.49650591  0.018224449    10026.125    11170.638    21196.764    133082.72 
 3881300       9156.5   0.49958128 0.0074874526    10081.073    11239.829    21320.903    133082.72 
 3881400         9157   0.49098168 0.0079277203    10236.665    11046.351    21283.017    133082.72 
 3881500       9157.5    0.4989852 0.0087808154     10023.04    11226.418    21249.459    133082.72 
 3881600         9158   0.50286155 0.0034137592    9999.1205    11313.631    21312.751    133082.72 
 3881700       9158.5   0.50335657  0.011369449    10071.167    11324.768    21395.934    133082.72 
 3881800         9159   0.50247983  0.011654078     10249.99    11305.042    21555.033    133082.72 
 3881900       9159.5   0.50542153  0.012884975    10085.848    11371.226    21457.075    133082.72 
 3882000         9160   0.50718326 0.0036433005    10111.736    11410.863    21522.599    133082.72 
 3882100       9160.5   0.50642363  0.022721212    10062.851    11393.772    21456.623    133082.72 
 3882200         9161   0.50304973 0.0080531564    10064.685    11317.864    21382.549    133082.72 
 3882300       9161.5   0.50340286  0.005847259    10060.221    11325.809     21386.03    133082.72 
 3882400         9162   0.50651267  0.016084021    10121.264    11395.775    21517.039    133082.72 
 3882500       9162.5   0.50178169 0.0037092461    10245.272    11289.335    21534.607    133082.72 
 3882600         9163   0.50071634 0.0042927581    10204.782    11265.367    21470.149    133082.72 
 3882700       9163.5   0.49689699  0.017276395    10155.604    11179.437    21335.041    133082.72 
 3882800         9164   0.50178595 0.00013606096    10036.593    11289.431    21326.024    133082.72 
 3882900       9164.5   0.49849045  0.018969635    10074.347    11215.287    21289.634    133082.72 
 3883000         9165   0.50131459  0.022465126    10010.793    11278.826     21289.62    133082.72 
 3883100       9165.5   0.49704642 0.0018479498    10113.706    11182.799    21296.505    133082.72 
 3883200         9166   0.49540662 0.0012854836    10176.892    11145.906    21322.798    133082.72 
 3883300       9166.5   0.49941021  0.022217035    10085.929    11235.981    21321.909    133082.72 
 3883400         9167   0.49726265 0.0016922591    10087.084    11187.664    21274.748    133082.72 
 3883500       9167.5   0.49843425 0.0085783367    9997.1668    11214.023     21211.19    133082.72 
 3883600         9168   0.49739172  0.014781317    10067.634    11190.568    21258.202    133082.72 
 3883700       9168.5   0.50053999 -0.0025473289    9933.7913    11261.399     21195.19    133082.72 
 3883800         9169   0.49902608  0.014049846    9978.8279    11227.338    21206.166    133082.72 
 3883900       9169.5   0.49366285  0.014123571     10032.23    11106.674    21138.903    133082.72 
 3884000         9170   0.50031465 0.0026673588    10078.578    11256.329    21334.908    133082.72 
 3884100       9170.5   0.50215823  0.021224961    10137.839    11297.807    21435.646    133082.72 
 3884200         9171   0.49772705 0.0077358255    10129.708    11198.112     21327.82    133082.72 
 3884300       9171.5   0.50269253 0.0060798408    10104.446    11309.828    21414.274    133082.72 
 3884400         9172   0.50038758   0.01521309    10129.052     11257.97    21387.022    133082.72 
 3884500       9172.5   0.50298736 0.0073827982    10095.072    11316.461    21411.533    133082.72 
 3884600         9173   0.49656994 0.0077585485    10054.771    11172.079     21226.85    133082.72 
 3884700       9173.5   0.49651508  0.010082087    10122.339    11170.844    21293.183    133082.72 
 3884800         9174   0.49602292  0.014585769    10153.482    11159.772    21313.254    133082.72 
 3884900       9174.5   0.49655265 0.0062589128    10142.654     11171.69    21314.344    133082.72 
 3885000         9175   0.50169075  0.004788788    10006.517    11287.289    21293.806    133082.72 
 3885100       9175.5   0.49811376 0.0069518549    10083.597    11206.813     21290.41    133082.72 
 3885200         9176   0.49982051 0.0048911802     10157.35    11245.212    21402.562    133082.72 
 3885300       9176.5   0.50174841  0.019245897    10159.707    11288.587    21448.293    133082.72 
 3885400         9177   0.50016845 0.0050989906    10188.523     11253.04    21441.563    133082.72 
 3885500       9177.5   0.50462813  0.012855239    10083.615    11353.376    21436.991    133082.72 
 3885600         9178    0.4992873 0.0030363047     10195.96    11233.215    21429.176    133082.72 
 3885700       9178.5    0.5019525 0.0053709337    10111.602    11293.178     21404.78    133082.72 
 3885800         9179   0.49924316  0.017900736    10152.232    11232.222    21384.455    133082.72 
 3885900       9179.5   0.50469191 0.0062587215    10189.968    11354.811    21544.779    133082.72 
 3886000         9180   0.50722628 0.0089410942    10145.967     11411.83    21557.797    133082.72 
 3886100       9180.5   0.50393078  0.018538723    10238.764    11337.687    21576.451    133082.72 
 3886200         9181    0.5013788 0.0032921067     10250.31    11280.271     21530.58    133082.72 
 3886300       9181.5   0.50452777 0.0089625234    10271.305    11351.118    21622.423    133082.72 
 3886400         9182   0.50994133 0.0070161072    10319.411    11472.915    21792.325    133082.72 
 3886500       9182.5   0.50376956  0.011819472    10291.877    11334.059    21625.936    133082.72 
 3886600         9183   0.50376003  0.011979149    10137.903    11333.845    21471.748    133082.72 
 3886700       9183.5   0.50451652  0.012188084    10128.008    11350.865    21478.873    133082.72 
 3886800         9184   0.50237171 0.0014477504    10176.194     11302.61    21478.804    133082.72 
 3886900       9184.5   0.49724191  0.014334098    10170.678    11187.197    21357.875    133082.72 
 3887000         9185   0.49772075  0.026665185    10106.158     11197.97    21304.129    133082.72 
 3887100       9185.5   0.49790091 0.0039573227    10021.566    11202.024    21223.589    133082.72 
 3887200         9186   0.50334662 0.0098863721    9961.9827    11324.544    21286.527    133082.72 
 3887300       9186.5   0.50225703  0.016069339    10073.796     11300.03    21373.825    133082.72 
 3887400         9187   0.50327248 -0.0023342198    10136.208    11322.876    21459.084    133082.72 
 3887500       9187.5   0.49667066  0.013438897    10131.004    11174.345    21305.349    133082.72 
 3887600         9188   0.49943093 0.0085424937    10133.509    11236.447    21369.955    133082.72 
 3887700       9188.5   0.49381611 0.0037924797    10125.229    11110.122    21235.351    133082.72 
 3887800         9189   0.49080196  0.013825585    10112.969    11042.308    21155.277    133082.72 
 3887900       9189.5    0.5002987 0.0036113935     10110.79     11255.97    21366.761    133082.72 
 3888000         9190   0.49835393 0.0053257165    10080.822    11212.216    21293.038    133082.72 
 3888100       9190.5   0.49753364  0.018763526    10126.277    11193.761    21320.038    133082.72 
 3888200         9191   0.49841301 0.0099458931    10062.201    11213.545    21275.746    133082.72 
 3888300       9191.5   0.49836295 0.0066086913    9989.0417    11212.419     21201.46    133082.72 
 3888400         9192   0.49283099 0.0038396685    10063.909    11087.958    21151.867    133082.72 
 3888500       9192.5   0.49630149  0.013082485    10083.553    11166.039    21249.593    133082.72 
 3888600         9193   0.49911474 0.0070894494    10163.776    11229.333    21393.109    133082.72 
 3888700       9193.5   0.50173883  0.011778669    10194.959    11288.371     21483.33    133082.72 
 3888800         9194   0.49811915 0.0035540147     10208.43    11206.934    21415.364    133082.72 
 3888900       9194.5   0.49849116  0.013168879    10084.892    11215.303    21300.195    133082.72 
 3889000         9195   0.49721265  0.015812604     10145.35    11186.539    21331.888    133082.72 
 3889100       9195.5   0.50053899 0.0069213867    10103.444    11261.376    21364.821    133082.72 
 3889200         9196   0.50047851  0.014562617    10151.903    11260.016    21411.919    133082.72 
 3889300       9196.5   0.50424419 0.00024012295    10151.663    11344.738    21496.401    133082.72 
 3889400         9197   0.50065767 0.0087092566    10047.121    11264.047    21311.168    133082.72 
 3889500       9197.5   0.49851873   0.01546849    10061.278    11215.924    21277.201    133082.72 
 3889600         9198   0.49801966 0.0032584209    10123.119    11204.695    21327.814    133082.72 
 3889700       9198.5   0.49286175 0.0066229731    10087.219     11088.65    21175.869    133082.72 
 3889800         9199   0.49434659  0.017747829    10088.534    11122.057    21210.591    133082.72 
 3889900       9199.5   0.49696728 0.0060226221    10123.656    11181.018    21304.675    133082.72 
 3890000         9200   0.49599552  0.013461852    10051.917    11159.155    21211.073    133082.72 
 3890100       9200.5   0.49780032  0.011011111    9931.7848     11199.76    21131.545    133082.72 
 3890200         9201   0.49583832  0.013013329    10011.913    11155.618    21167.531    133082.72 
 3890300       9201.5   0.49559064 0.0044509993    10044.163    11150.046    21194.209    133082.72 
 3890400         9202   0.49161384  0.012557719    10073.449    11060.574    21134.023    133082.72 
 3890500       9202.5   0.49801464 -0.00019314391    10093.952    11204.582    21298.534    133082.72 
 3890600         9203   0.50545549  0.017974175    10065.657     11371.99    21437.648    133082.72 
 3890700       9203.5   0.50277928 0.0044219554    10099.037     11311.78    21410.817    133082.72 
 3890800         9204   0.50224539   0.01400191    10082.263    11299.768    21382.031    133082.72 
 3890900       9204.5   0.49721312 -0.001047247     10091.73    11186.549    21278.279    133082.72 
 3891000         9205   0.49842912  0.002956527     10103.21    11213.907    21317.118    133082.72 
 3891100       9205.5   0.49883418  0.021184742    10030.612    11223.021    21253.633    133082.72 
 3891200         9206   0.49739377 -0.0010724417    10088.307    11190.614    21278.921    133082.72 
 3891300       9206.5   0.50089636  0.013981077     10086.39    11269.417    21355.806    133082.72 
 3891400         9207   0.50365291 0.0076879888    10056.298    11331.435    21387.733    133082.72 
 3891500       9207.5   0.49692714 0.0091159454    10100.237    11180.115    21280.352    133082.72 
 3891600         9208   0.50548547   0.01652485    10004.761    11372.665    21377.426    133082.72 
 3891700       9208.5   0.50317195 0.0030336524    9961.6746    11320.614    21282.289    133082.72 
 3891800         9209   0.49528015  0.025073835    10029.255     11143.06    21172.316    133082.72 
 3891900       9209.5   0.50379005 0.0062027805    9922.9261    11334.521    21257.447    133082.72 
 3892000         9210   0.49408088 0.0042055999    10038.971    11116.079     21155.05    133082.72 
 3892100       9210.5   0.49595917  0.013629715    9941.6581    11158.337    21099.995    133082.72 
 3892200         9211   0.50070801  0.010938024    10008.839    11265.179    21274.018    133082.72 
 3892300       9211.5   0.49559988 -0.00071261164     10130.65    11150.254    21280.904    133082.72 
 3892400         9212   0.49885894  0.025583814    10025.421    11223.578    21248.999    133082.72 
 3892500       9212.5   0.50171377 -0.0042738436    10054.282    11287.807     21342.09    133082.72 
 3892600         9213   0.50670873  0.003928783    10127.128    11400.186    21527.314    133082.72 
 3892700       9213.5   0.50058529  0.019382548    10157.011    11262.418    21419.429    133082.72 
 3892800         9214   0.49663308  0.011906738    10113.401    11173.499      21286.9    133082.72 
 3892900       9214.5   0.50183169 0.0047881816    10079.633     11290.46    21370.093    133082.72 
 3893000         9215   0.50060864  0.016819107    10043.237    11262.943    21306.181    133082.72 
 3893100       9215.5   0.50082289 0.0024204584    10093.411    11267.764    21361.175    133082.72 
 3893200         9216   0.50023384   0.01086542    10082.702    11254.511    21337.213    133082.72 
 3893300       9216.5   0.49890064  0.011158574    10128.199    11224.516    21352.715    133082.72 
 3893400         9217   0.50007273 0.0062780678    10019.715    11250.886    21270.602    133082.72 
 3893500       9217.5   0.49375101 0.0084476767    10011.077    11108.657    21119.734    133082.72 
 3893600         9218   0.49484031  0.011860647    10081.675    11133.165     21214.84    133082.72 
 3893700       9218.5   0.49758465 0.0058187844    10129.468    11194.908    21324.376    133082.72 
 3893800         9219   0.49689191 0.0084635337    10106.826    11179.323    21286.148    133082.72 
 3893900       9219.5   0.49875737 0.0068354282    10073.606    11221.293    21294.899    133082.72 
 3894000         9220   0.50105483 0.0050015954    9969.8397    11272.982    21242.822    133082.72 
 3894100       9220.5   0.49848208  0.010014409    10165.316    11215.099    21380.415    133082.72 
 3894200         9221   0.50068772   0.01377356    9998.4413    11264.723    21263.164    133082.72 
 3894300       9221.5   0.50131034 0.0054260018    10025.054    11278.731    21303.785    133082.72 
 3894400         9222   0.50100577 0.0054059933    10