LAMMPS (7 Aug 2019)
#
#
# VARIABLES
variable T         equal  0.50 #0.10 0.36 0.70
variable num       equal  1
variable N         equal  100 #200 # 250 300 350
variable box       equal  50
variable t_step    equal  0.005
variable mix_steps equal  200000
variable mix_tau   equal  ${t_step}*${mix_steps}
variable mix_tau   equal  0.005*${mix_steps}
variable mix_tau   equal  0.005*200000
variable run_steps equal  200000
variable run_tau   equal  ${t_step}*${run_steps}
variable run_tau   equal  0.005*${run_steps}
variable run_tau   equal  0.005*200000

# PARAMETERS
units lj
atom_style molecular
neighbor 0.4 bin
neigh_modify every 1 delay 1 check yes
comm_modify vel yes

# READ
read_data input_data_nunchucks_${N}_${box}.file
read_data input_data_nunchucks_100_${box}.file
read_data input_data_nunchucks_100_50.file
  orthogonal box = (-25 -25 -25) to (25 25 25)
  1 by 1 by 1 MPI processor grid
  reading atoms ...
  1000 atoms
  scanning bonds ...
  1 = max bonds/atom
  scanning angles ...
  1 = max angles/atom
  reading bonds ...
  900 bonds
  reading angles ...
  800 angles
  2 = max # of 1-2 neighbors
  2 = max # of 1-3 neighbors
  4 = max # of 1-4 neighbors
  6 = max # of special neighbors
  special bonds CPU = 0.000357151 secs
  read_data CPU = 0.0051291 secs

#  BONDS
bond_style harmonic
special_bonds lj 0 1 1
  2 = max # of 1-2 neighbors
  2 = max # of 1-3 neighbors
  4 = max # of 1-4 neighbors
  6 = max # of special neighbors
  special bonds CPU = 0.000285149 secs
bond_coeff * 500.0 0.98  # the wildcard (*) means to have the same for all bond types.
bond_coeff 5 50.0 0.98

# ANGLES
angle_style harmonic
angle_coeff * 500.0  180
angle_coeff 4 0.1  180
angle_coeff 5 0.1  180

# PAIR lj/cut --with interactions, to steady state
pair_style lj/cut 1.0
pair_modify shift yes
pair_coeff * * 1  1.0  1.12

# THERMAL
timestep ${t_step}
timestep 0.005
thermo   100
thermo_style custom step time temp press pe ke etotal vol
thermo_modify norm no
reset_timestep 0

# FIX
fix 2 all nph iso 0.5 0.5 100
fix 3 all langevin 0.5 0.5 1 123456
#run 50000

#unfix 3
#fix 4 all nve
#fix 5 all langevin ${T} ${T} 1 123456
fix recen1 all recenter INIT INIT INIT


# DUMP OUTPUT
dump  1  all custom 1000 output.dump id mol type x y z vx vy vz

# FIX for RDF
#comm_modify cutoff 25.0
#compute   3 all rdf 500 5 6 cutoff 24.0
#fix       3 all ave/time 1 ${run_steps} ${run_steps} c_3[*] file rdf_T_${T}_N_${N}_box_${box}_tau_${run_tau}.rdf mode vector


# RUN
run ${run_steps}
run 200000
Neighbor list info ...
  update every 1 steps, delay 1 steps, check yes
  max neighbors/atom: 2000, page size: 100000
  master list distance cutoff = 1.52
  ghost atom cutoff = 1.52
  binsize = 0.76, bins = 66 66 66
  1 neighbor lists, perpetual/occasional/extra = 1 0 0
  (1) pair lj/cut, perpetual
      attributes: half, newton on
      pair build: half/bin/newton
      stencil: half/bin/3d/newton
      bin: standard
WARNING: Communication cutoff 1.52 is shorter than a bond length based estimate of 1.87. This may lead to errors. (../comm.cpp:685)
Per MPI rank memory allocation (min/avg/max) = 8.93 | 8.93 | 8.93 Mbytes
Step Time Temp Press PotEng KinEng TotEng Volume 
       0            0            0 -1.8190974e-17 1.5099988e-11            0 1.5099988e-11       125000 
WARNING: Communication cutoff 1.52 is shorter than a bond length based estimate of 1.87. This may lead to errors. (../comm.cpp:685)
WARNING: Communication cutoff 1.52 is shorter than a bond length based estimate of 1.87. This may lead to errors. (../comm.cpp:685)
     100          0.5   0.22628948 -0.0033296929    222.35724    339.09478    561.45202    124707.86 
WARNING: Communication cutoff 1.52 is shorter than a bond length based estimate of 1.87. This may lead to errors. (../comm.cpp:685)
WARNING: Communication cutoff 1.52 is shorter than a bond length based estimate of 1.87. This may lead to errors. (../comm.cpp:685)
WARNING: Communication cutoff 1.52 is shorter than a bond length based estimate of 1.87. This may lead to errors. (../comm.cpp:685)
WARNING: Communication cutoff 1.52 is shorter than a bond length based estimate of 1.87. This may lead to errors. (../comm.cpp:685)
WARNING: Communication cutoff 1.52 is shorter than a bond length based estimate of 1.87. This may lead to errors. (../comm.cpp:685)
     200            1   0.34108549 0.00060025817     313.9116    511.11661    825.02821    123838.32 
WARNING: Communication cutoff 1.52 is shorter than a bond length based estimate of 1.87. This may lead to errors. (../comm.cpp:685)
WARNING: Communication cutoff 1.52 is shorter than a bond length based estimate of 1.87. This may lead to errors. (../comm.cpp:685)
WARNING: Communication cutoff 1.52 is shorter than a bond length based estimate of 1.87. This may lead to errors. (../comm.cpp:685)
WARNING: Communication cutoff 1.52 is shorter than a bond length based estimate of 1.87. This may lead to errors. (../comm.cpp:685)
WARNING: Communication cutoff 1.52 is shorter than a bond length based estimate of 1.87. This may lead to errors. (../comm.cpp:685)
WARNING: Communication cutoff 1.52 is shorter than a bond length based estimate of 1.87. This may lead to errors. (../comm.cpp:685)
     300          1.5   0.39138198 0.0014085908    422.47327     586.4859    1008.9592    122432.23 
WARNING: Communication cutoff 1.52 is shorter than a bond length based estimate of 1.87. This may lead to errors. (../comm.cpp:685)
WARNING: Communication cutoff 1.52 is shorter than a bond length based estimate of 1.87. This may lead to errors. (../comm.cpp:685)
WARNING: Communication cutoff 1.52 is shorter than a bond length based estimate of 1.87. This may lead to errors. (../comm.cpp:685)
WARNING: Communication cutoff 1.52 is shorter than a bond length based estimate of 1.87. This may lead to errors. (../comm.cpp:685)
WARNING: Communication cutoff 1.52 is shorter than a bond length based estimate of 1.87. This may lead to errors. (../comm.cpp:685)
WARNING: Communication cutoff 1.52 is shorter than a bond length based estimate of 1.87. This may lead to errors. (../comm.cpp:685)
     400            2   0.45877322 0.0019518467    487.91195    687.47167    1175.3836    120598.85 
WARNING: Communication cutoff 1.52 is shorter than a bond length based estimate of 1.87. This may lead to errors. (../comm.cpp:685)
WARNING: Communication cutoff 1.52 is shorter than a bond length based estimate of 1.87. This may lead to errors. (../comm.cpp:685)
WARNING: Communication cutoff 1.52 is shorter than a bond length based estimate of 1.87. This may lead to errors. (../comm.cpp:685)
WARNING: Communication cutoff 1.52 is shorter than a bond length based estimate of 1.87. This may lead to errors. (../comm.cpp:685)
WARNING: Communication cutoff 1.52 is shorter than a bond length based estimate of 1.87. This may lead to errors. (../comm.cpp:685)
WARNING: Communication cutoff 1.52 is shorter than a bond length based estimate of 1.87. This may lead to errors. (../comm.cpp:685)
WARNING: Communication cutoff 1.52 is shorter than a bond length based estimate of 1.87. This may lead to errors. (../comm.cpp:685)
     500          2.5   0.48417902 -0.0010136968    507.31963    725.54226    1232.8619    118533.77 
WARNING: Communication cutoff 1.52 is shorter than a bond length based estimate of 1.87. This may lead to errors. (../comm.cpp:685)
WARNING: Communication cutoff 1.52 is shorter than a bond length based estimate of 1.87. This may lead to errors. (../comm.cpp:685)
WARNING: Communication cutoff 1.52 is shorter than a bond length based estimate of 1.87. This may lead to errors. (../comm.cpp:685)
WARNING: Communication cutoff 1.52 is shorter than a bond length based estimate of 1.87. This may lead to errors. (../comm.cpp:685)
WARNING: Communication cutoff 1.52 is shorter than a bond length based estimate of 1.87. This may lead to errors. (../comm.cpp:685)
WARNING: Communication cutoff 1.52 is shorter than a bond length based estimate of 1.87. This may lead to errors. (../comm.cpp:685)
WARNING: Communication cutoff 1.52 is shorter than a bond length based estimate of 1.87. This may lead to errors. (../comm.cpp:685)
     600            3   0.48488258 -0.0022017419    533.14074    726.59655    1259.7373    116463.14 
WARNING: Communication cutoff 1.52 is shorter than a bond length based estimate of 1.87. This may lead to errors. (../comm.cpp:685)
WARNING: Communication cutoff 1.52 is shorter than a bond length based estimate of 1.87. This may lead to errors. (../comm.cpp:685)
WARNING: Communication cutoff 1.52 is shorter than a bond length based estimate of 1.87. This may lead to errors. (../comm.cpp:685)
WARNING: Communication cutoff 1.52 is shorter than a bond length based estimate of 1.87. This may lead to errors. (../comm.cpp:685)
WARNING: Communication cutoff 1.52 is shorter than a bond length based estimate of 1.87. This may lead to errors. (../comm.cpp:685)
WARNING: Communication cutoff 1.52 is shorter than a bond length based estimate of 1.87. This may lead to errors. (../comm.cpp:685)
WARNING: Communication cutoff 1.52 is shorter than a bond length based estimate of 1.87. This may lead to errors. (../comm.cpp:685)
     700          3.5   0.48491993 -0.00081872774    546.77474    726.65251    1273.4273    114538.23 
WARNING: Communication cutoff 1.52 is shorter than a bond length based estimate of 1.87. This may lead to errors. (../comm.cpp:685)
WARNING: Communication cutoff 1.52 is shorter than a bond length based estimate of 1.87. This may lead to errors. (../comm.cpp:685)
WARNING: Communication cutoff 1.52 is shorter than a bond length based estimate of 1.87. This may lead to errors. (../comm.cpp:685)
WARNING: Communication cutoff 1.52 is shorter than a bond length based estimate of 1.87. This may lead to errors. (../comm.cpp:685)
WARNING: Communication cutoff 1.52 is shorter than a bond length based estimate of 1.87. This may lead to errors. (../comm.cpp:685)
WARNING: Communication cutoff 1.52 is shorter than a bond length based estimate of 1.87. This may lead to errors. (../comm.cpp:685)
WARNING: Communication cutoff 1.52 is shorter than a bond length based estimate of 1.87. This may lead to errors. (../comm.cpp:685)
     800            4   0.47738936 0.0036988148    581.49617    715.36796    1296.8641    112780.84 
WARNING: Communication cutoff 1.52 is shorter than a bond length based estimate of 1.87. This may lead to errors. (../comm.cpp:685)
WARNING: Communication cutoff 1.52 is shorter than a bond length based estimate of 1.87. This may lead to errors. (../comm.cpp:685)
WARNING: Communication cutoff 1.52 is shorter than a bond length based estimate of 1.87. This may lead to errors. (../comm.cpp:685)
WARNING: Communication cutoff 1.52 is shorter than a bond length based estimate of 1.87. This may lead to errors. (../comm.cpp:685)
WARNING: Communication cutoff 1.52 is shorter than a bond length based estimate of 1.87. This may lead to errors. (../comm.cpp:685)
WARNING: Communication cutoff 1.52 is shorter than a bond length based estimate of 1.87. This may lead to errors. (../comm.cpp:685)
WARNING: Communication cutoff 1.52 is shorter than a bond length based estimate of 1.87. This may lead to errors. (../comm.cpp:685)
     900          4.5   0.48391729 -0.0036437547     561.9314    725.15006    1287.0815    111131.25 
WARNING: Communication cutoff 1.52 is shorter than a bond length based estimate of 1.87. This may lead to errors. (../comm.cpp:685)
WARNING: Communication cutoff 1.52 is shorter than a bond length based estimate of 1.87. This may lead to errors. (../comm.cpp:685)
WARNING: Communication cutoff 1.52 is shorter than a bond length based estimate of 1.87. This may lead to errors. (../comm.cpp:685)
WARNING: Communication cutoff 1.52 is shorter than a bond length based estimate of 1.87. This may lead to errors. (../comm.cpp:685)
WARNING: Communication cutoff 1.52 is shorter than a bond length based estimate of 1.87. This may lead to errors. (../comm.cpp:685)
WARNING: Communication cutoff 1.52 is shorter than a bond length based estimate of 1.87. This may lead to errors. (../comm.cpp:685)
WARNING: Communication cutoff 1.52 is shorter than a bond length based estimate of 1.87. This may lead to errors. (../comm.cpp:685)
    1000            5   0.47338523 0.0015118781    563.48867    709.36777    1272.8564    109522.02 
WARNING: Communication cutoff 1.52 is shorter than a bond length based estimate of 1.87. This may lead to errors. (../comm.cpp:685)
WARNING: Communication cutoff 1.52 is shorter than a bond length based estimate of 1.87. This may lead to errors. (../comm.cpp:685)
WARNING: Communication cutoff 1.52 is shorter than a bond length based estimate of 1.87. This may lead to errors. (../comm.cpp:685)
WARNING: Communication cutoff 1.52 is shorter than a bond length based estimate of 1.87. This may lead to errors. (../comm.cpp:685)
WARNING: Communication cutoff 1.52 is shorter than a bond length based estimate of 1.87. This may lead to errors. (../comm.cpp:685)
WARNING: Communication cutoff 1.52 is shorter than a bond length based estimate of 1.87. This may lead to errors. (../comm.cpp:685)
WARNING: Communication cutoff 1.52 is shorter than a bond length based estimate of 1.87. This may lead to errors. (../comm.cpp:685)
    1100          5.5     0.500994  0.003649167    532.82245    750.73951     1283.562    107918.45 
WARNING: Communication cutoff 1.52 is shorter than a bond length based estimate of 1.87. This may lead to errors. (../comm.cpp:685)
WARNING: Communication cutoff 1.52 is shorter than a bond length based estimate of 1.87. This may lead to errors. (../comm.cpp:685)
WARNING: Communication cutoff 1.52 is shorter than a bond length based estimate of 1.87. This may lead to errors. (../comm.cpp:685)
WARNING: Communication cutoff 1.52 is shorter than a bond length based estimate of 1.87. This may lead to errors. (../comm.cpp:685)
WARNING: Communication cutoff 1.52 is shorter than a bond length based estimate of 1.87. This may lead to errors. (../comm.cpp:685)
WARNING: Communication cutoff 1.52 is shorter than a bond length based estimate of 1.87. This may lead to errors. (../comm.cpp:685)
WARNING: Communication cutoff 1.52 is shorter than a bond length based estimate of 1.87. This may lead to errors. (../comm.cpp:685)
    1200            6   0.50356591 -0.00056019087     546.5941    754.59351    1301.1876    106321.67 
WARNING: Communication cutoff 1.52 is shorter than a bond length based estimate of 1.87. This may lead to errors. (../comm.cpp:685)
WARNING: Communication cutoff 1.52 is shorter than a bond length based estimate of 1.87. This may lead to errors. (../comm.cpp:685)
WARNING: Communication cutoff 1.52 is shorter than a bond length based estimate of 1.87. This may lead to errors. (../comm.cpp:685)
WARNING: Communication cutoff 1.52 is shorter than a bond length based estimate of 1.87. This may lead to errors. (../comm.cpp:685)
WARNING: Communication cutoff 1.52 is shorter than a bond length based estimate of 1.87. This may lead to errors. (../comm.cpp:685)
WARNING: Communication cutoff 1.52 is shorter than a bond length based estimate of 1.87. This may lead to errors. (../comm.cpp:685)
WARNING: Communication cutoff 1.52 is shorter than a bond length based estimate of 1.87. This may lead to errors. (../comm.cpp:685)
    1300          6.5   0.47735108 0.0036971078     570.5134     715.3106     1285.824    104752.54 
WARNING: Communication cutoff 1.52 is shorter than a bond length based estimate of 1.87. This may lead to errors. (../comm.cpp:685)
WARNING: Communication cutoff 1.52 is shorter than a bond length based estimate of 1.87. This may lead to errors. (../comm.cpp:685)
WARNING: Communication cutoff 1.52 is shorter than a bond length based estimate of 1.87. This may lead to errors. (../comm.cpp:685)
WARNING: Communication cutoff 1.52 is shorter than a bond length based estimate of 1.87. This may lead to errors. (../comm.cpp:685)
WARNING: Communication cutoff 1.52 is shorter than a bond length based estimate of 1.87. This may lead to errors. (../comm.cpp:685)
WARNING: Communication cutoff 1.52 is shorter than a bond length based estimate of 1.87. This may lead to errors. (../comm.cpp:685)
    1400            7   0.51261808 0.0013012141    560.79246    768.15819    1328.9507    103237.45 
WARNING: Communication cutoff 1.52 is shorter than a bond length based estimate of 1.87. This may lead to errors. (../comm.cpp:685)
WARNING: Communication cutoff 1.52 is shorter than a bond length based estimate of 1.87. This may lead to errors. (../comm.cpp:685)
WARNING: Communication cutoff 1.52 is shorter than a bond length based estimate of 1.87. This may lead to errors. (../comm.cpp:685)
WARNING: Communication cutoff 1.52 is shorter than a bond length based estimate of 1.87. This may lead to errors. (../comm.cpp:685)
WARNING: Communication cutoff 1.52 is shorter than a bond length based estimate of 1.87. This may lead to errors. (../comm.cpp:685)
WARNING: Communication cutoff 1.52 is shorter than a bond length based estimate of 1.87. This may lead to errors. (../comm.cpp:685)
WARNING: Communication cutoff 1.52 is shorter than a bond length based estimate of 1.87. This may lead to errors. (../comm.cpp:685)
    1500          7.5   0.52125489 -0.0010410702     569.1287    781.10045    1350.2291    101794.25 
WARNING: Communication cutoff 1.52 is shorter than a bond length based estimate of 1.87. This may lead to errors. (../comm.cpp:685)
WARNING: Communication cutoff 1.52 is shorter than a bond length based estimate of 1.87. This may lead to errors. (../comm.cpp:685)
WARNING: Communication cutoff 1.52 is shorter than a bond length based estimate of 1.87. This may lead to errors. (../comm.cpp:685)
WARNING: Communication cutoff 1.52 is shorter than a bond length based estimate of 1.87. This may lead to errors. (../comm.cpp:685)
WARNING: Communication cutoff 1.52 is shorter than a bond length based estimate of 1.87. This may lead to errors. (../comm.cpp:685)
WARNING: Communication cutoff 1.52 is shorter than a bond length based estimate of 1.87. This may lead to errors. (../comm.cpp:685)
    1600            8   0.51589974 -0.00025064919     599.6335    773.07577    1372.7093    100427.77 
WARNING: Communication cutoff 1.52 is shorter than a bond length based estimate of 1.87. This may lead to errors. (../comm.cpp:685)
WARNING: Communication cutoff 1.52 is shorter than a bond length based estimate of 1.87. This may lead to errors. (../comm.cpp:685)
WARNING: Communication cutoff 1.52 is shorter than a bond length based estimate of 1.87. This may lead to errors. (../comm.cpp:685)
WARNING: Communication cutoff 1.52 is shorter than a bond length based estimate of 1.87. This may lead to errors. (../comm.cpp:685)
WARNING: Communication cutoff 1.52 is shorter than a bond length based estimate of 1.87. This may lead to errors. (../comm.cpp:685)
WARNING: Communication cutoff 1.52 is shorter than a bond length based estimate of 1.87. This may lead to errors. (../comm.cpp:685)
WARNING: Communication cutoff 1.52 is shorter than a bond length based estimate of 1.87. This may lead to errors. (../comm.cpp:685)
    1700          8.5   0.52043967 0.0026203303    565.69811    779.87884    1345.5769    99133.005 
WARNING: Communication cutoff 1.52 is shorter than a bond length based estimate of 1.87. This may lead to errors. (../comm.cpp:685)
WARNING: Communication cutoff 1.52 is shorter than a bond length based estimate of 1.87. This may lead to errors. (../comm.cpp:685)
WARNING: Communication cutoff 1.52 is shorter than a bond length based estimate of 1.87. This may lead to errors. (../comm.cpp:685)
WARNING: Communication cutoff 1.52 is shorter than a bond length based estimate of 1.87. This may lead to errors. (../comm.cpp:685)
WARNING: Communication cutoff 1.52 is shorter than a bond length based estimate of 1.87. This may lead to errors. (../comm.cpp:685)
WARNING: Communication cutoff 1.52 is shorter than a bond length based estimate of 1.87. This may lead to errors. (../comm.cpp:685)
WARNING: Communication cutoff 1.52 is shorter than a bond length based estimate of 1.87. This may lead to errors. (../comm.cpp:685)
    1800            9   0.51213459 -0.0037893379    579.37483    767.43369    1346.8085    97899.831 
WARNING: Communication cutoff 1.52 is shorter than a bond length based estimate of 1.87. This may lead to errors. (../comm.cpp:685)
WARNING: Communication cutoff 1.52 is shorter than a bond length based estimate of 1.87. This may lead to errors. (../comm.cpp:685)
WARNING: Communication cutoff 1.52 is shorter than a bond length based estimate of 1.87. This may lead to errors. (../comm.cpp:685)
WARNING: Communication cutoff 1.52 is shorter than a bond length based estimate of 1.87. This may lead to errors. (../comm.cpp:685)
WARNING: Communication cutoff 1.52 is shorter than a bond length based estimate of 1.87. This may lead to errors. (../comm.cpp:685)
WARNING: Communication cutoff 1.52 is shorter than a bond length based estimate of 1.87. This may lead to errors. (../comm.cpp:685)
WARNING: Communication cutoff 1.52 is shorter than a bond length based estimate of 1.87. This may lead to errors. (../comm.cpp:685)
    1900          9.5   0.51361439  0.005046732    614.28006    769.65117    1383.9312      96717.4 
WARNING: Communication cutoff 1.52 is shorter than a bond length based estimate of 1.87. This may lead to errors. (../comm.cpp:685)
WARNING: Communication cutoff 1.52 is shorter than a bond length based estimate of 1.87. This may lead to errors. (../comm.cpp:685)
WARNING: Communication cutoff 1.52 is shorter than a bond length based estimate of 1.87. This may lead to errors. (../comm.cpp:685)
WARNING: Communication cutoff 1.52 is shorter than a bond length based estimate of 1.87. This may lead to errors. (../comm.cpp:685)
WARNING: Communication cutoff 1.52 is shorter than a bond length based estimate of 1.87. This may lead to errors. (../comm.cpp:685)
WARNING: Communication cutoff 1.52 is shorter than a bond length based estimate of 1.87. This may lead to errors. (../comm.cpp:685)
    2000           10   0.51968088 0.00019519303    578.99042     778.7418    1357.7322    95576.967 
WARNING: Communication cutoff 1.52 is shorter than a bond length based estimate of 1.87. This may lead to errors. (../comm.cpp:685)
WARNING: Communication cutoff 1.52 is shorter than a bond length based estimate of 1.87. This may lead to errors. (../comm.cpp:685)
WARNING: Communication cutoff 1.52 is shorter than a bond length based estimate of 1.87. This may lead to errors. (../comm.cpp:685)
WARNING: Communication cutoff 1.52 is shorter than a bond length based estimate of 1.87. This may lead to errors. (../comm.cpp:685)
WARNING: Communication cutoff 1.52 is shorter than a bond length based estimate of 1.87. This may lead to errors. (../comm.cpp:685)
WARNING: Communication cutoff 1.52 is shorter than a bond length based estimate of 1.87. This may lead to errors. (../comm.cpp:685)
WARNING: Communication cutoff 1.52 is shorter than a bond length based estimate of 1.87. This may lead to errors. (../comm.cpp:685)
    2100         10.5   0.51141813 0.00086608222    541.03332    766.36007    1307.3934    94471.131 
WARNING: Communication cutoff 1.52 is shorter than a bond length based estimate of 1.87. This may lead to errors. (../comm.cpp:685)
WARNING: Communication cutoff 1.52 is shorter than a bond length based estimate of 1.87. This may lead to errors. (../comm.cpp:685)
WARNING: Communication cutoff 1.52 is shorter than a bond length based estimate of 1.87. This may lead to errors. (../comm.cpp:685)
WARNING: Communication cutoff 1.52 is shorter than a bond length based estimate of 1.87. This may lead to errors. (../comm.cpp:685)
WARNING: Communication cutoff 1.52 is shorter than a bond length based estimate of 1.87. This may lead to errors. (../comm.cpp:685)
WARNING: Communication cutoff 1.52 is shorter than a bond length based estimate of 1.87. This may lead to errors. (../comm.cpp:685)
    2200           11   0.49678938 0.0014713957    562.39471    744.43888    1306.8336    93395.003 
WARNING: Communication cutoff 1.52 is shorter than a bond length based estimate of 1.87. This may lead to errors. (../comm.cpp:685)
WARNING: Communication cutoff 1.52 is shorter than a bond length based estimate of 1.87. This may lead to errors. (../comm.cpp:685)
WARNING: Communication cutoff 1.52 is shorter than a bond length based estimate of 1.87. This may lead to errors. (../comm.cpp:685)
WARNING: Communication cutoff 1.52 is shorter than a bond length based estimate of 1.87. This may lead to errors. (../comm.cpp:685)
WARNING: Communication cutoff 1.52 is shorter than a bond length based estimate of 1.87. This may lead to errors. (../comm.cpp:685)
WARNING: Communication cutoff 1.52 is shorter than a bond length based estimate of 1.87. This may lead to errors. (../comm.cpp:685)
    2300         11.5   0.50639421 -0.0018406765    560.05105    758.83173    1318.8828     92345.77 
WARNING: Communication cutoff 1.52 is shorter than a bond length based estimate of 1.87. This may lead to errors. (../comm.cpp:685)
WARNING: Communication cutoff 1.52 is shorter than a bond length based estimate of 1.87. This may lead to errors. (../comm.cpp:685)
WARNING: Communication cutoff 1.52 is shorter than a bond length based estimate of 1.87. This may lead to errors. (../comm.cpp:685)
WARNING: Communication cutoff 1.52 is shorter than a bond length based estimate of 1.87. This may lead to errors. (../comm.cpp:685)
WARNING: Communication cutoff 1.52 is shorter than a bond length based estimate of 1.87. This may lead to errors. (../comm.cpp:685)
WARNING: Communication cutoff 1.52 is shorter than a bond length based estimate of 1.87. This may lead to errors. (../comm.cpp:685)
WARNING: Communication cutoff 1.52 is shorter than a bond length based estimate of 1.87. This may lead to errors. (../comm.cpp:685)
    2400           12   0.50644246 0.0042681361    582.23317    758.90403    1341.1372    91321.282 
WARNING: Communication cutoff 1.52 is shorter than a bond length based estimate of 1.87. This may lead to errors. (../comm.cpp:685)
WARNING: Communication cutoff 1.52 is shorter than a bond length based estimate of 1.87. This may lead to errors. (../comm.cpp:685)
WARNING: Communication cutoff 1.52 is shorter than a bond length based estimate of 1.87. This may lead to errors. (../comm.cpp:685)
WARNING: Communication cutoff 1.52 is shorter than a bond length based estimate of 1.87. This may lead to errors. (../comm.cpp:685)
WARNING: Communication cutoff 1.52 is shorter than a bond length based estimate of 1.87. This may lead to errors. (../comm.cpp:685)
WARNING: Communication cutoff 1.52 is shorter than a bond length based estimate of 1.87. This may lead to errors. (../comm.cpp:685)
    2500         12.5   0.48626888 -0.00033556447    590.70936    728.67392    1319.3833    90320.402 
WARNING: Communication cutoff 1.52 is shorter than a bond length based estimate of 1.87. This may lead to errors. (../comm.cpp:685)
WARNING: Communication cutoff 1.52 is shorter than a bond length based estimate of 1.87. This may lead to errors. (../comm.cpp:685)
WARNING: Communication cutoff 1.52 is shorter than a bond length based estimate of 1.87. This may lead to errors. (../comm.cpp:685)
WARNING: Communication cutoff 1.52 is shorter than a bond length based estimate of 1.87. This may lead to errors. (../comm.cpp:685)
WARNING: Communication cutoff 1.52 is shorter than a bond length based estimate of 1.87. This may lead to errors. (../comm.cpp:685)
WARNING: Communication cutoff 1.52 is shorter than a bond length based estimate of 1.87. This may lead to errors. (../comm.cpp:685)
WARNING: Communication cutoff 1.52 is shorter than a bond length based estimate of 1.87. This may lead to errors. (../comm.cpp:685)
    2600           13   0.49570437 0.0010442448    576.86235      742.813    1319.6753     89341.82 
WARNING: Communication cutoff 1.52 is shorter than a bond length based estimate of 1.87. This may lead to errors. (../comm.cpp:685)
WARNING: Communication cutoff 1.52 is shorter than a bond length based estimate of 1.87. This may lead to errors. (../comm.cpp:685)
WARNING: Communication cutoff 1.52 is shorter than a bond length based estimate of 1.87. This may lead to errors. (../comm.cpp:685)
WARNING: Communication cutoff 1.52 is shorter than a bond length based estimate of 1.87. This may lead to errors. (../comm.cpp:685)
WARNING: Communication cutoff 1.52 is shorter than a bond length based estimate of 1.87. This may lead to errors. (../comm.cpp:685)
WARNING: Communication cutoff 1.52 is shorter than a bond length based estimate of 1.87. This may lead to errors. (../comm.cpp:685)
    2700         13.5   0.47622373 -0.00087616774    565.28341    713.62126    1278.9047    88384.597 
WARNING: Communication cutoff 1.52 is shorter than a bond length based estimate of 1.87. This may lead to errors. (../comm.cpp:685)
WARNING: Communication cutoff 1.52 is shorter than a bond length based estimate of 1.87. This may lead to errors. (../comm.cpp:685)
WARNING: Communication cutoff 1.52 is shorter than a bond length based estimate of 1.87. This may lead to errors. (../comm.cpp:685)
WARNING: Communication cutoff 1.52 is shorter than a bond length based estimate of 1.87. This may lead to errors. (../comm.cpp:685)
WARNING: Communication cutoff 1.52 is shorter than a bond length based estimate of 1.87. This may lead to errors. (../comm.cpp:685)
WARNING: Communication cutoff 1.52 is shorter than a bond length based estimate of 1.87. This may lead to errors. (../comm.cpp:685)
WARNING: Communication cutoff 1.52 is shorter than a bond length based estimate of 1.87. This may lead to errors. (../comm.cpp:685)
    2800           14   0.49726357 0.0011777581    530.48057    745.14946      1275.63    87448.139 
WARNING: Communication cutoff 1.52 is shorter than a bond length based estimate of 1.87. This may lead to errors. (../comm.cpp:685)
WARNING: Communication cutoff 1.52 is shorter than a bond length based estimate of 1.87. This may lead to errors. (../comm.cpp:685)
WARNING: Communication cutoff 1.52 is shorter than a bond length based estimate of 1.87. This may lead to errors. (../comm.cpp:685)
WARNING: Communication cutoff 1.52 is shorter than a bond length based estimate of 1.87. This may lead to errors. (../comm.cpp:685)
WARNING: Communication cutoff 1.52 is shorter than a bond length based estimate of 1.87. This may lead to errors. (../comm.cpp:685)
WARNING: Communication cutoff 1.52 is shorter than a bond length based estimate of 1.87. This may lead to errors. (../comm.cpp:685)
    2900         14.5    0.4985211  0.003053034     569.1486    747.03387    1316.1825    86531.658 
WARNING: Communication cutoff 1.52 is shorter than a bond length based estimate of 1.87. This may lead to errors. (../comm.cpp:685)
WARNING: Communication cutoff 1.52 is shorter than a bond length based estimate of 1.87. This may lead to errors. (../comm.cpp:685)
WARNING: Communication cutoff 1.52 is shorter than a bond length based estimate of 1.87. This may lead to errors. (../comm.cpp:685)
WARNING: Communication cutoff 1.52 is shorter than a bond length based estimate of 1.87. This may lead to errors. (../comm.cpp:685)
WARNING: Communication cutoff 1.52 is shorter than a bond length based estimate of 1.87. This may lead to errors. (../comm.cpp:685)
WARNING: Communication cutoff 1.52 is shorter than a bond length based estimate of 1.87. This may lead to errors. (../comm.cpp:685)
    3000           15    0.5030554 -0.0026751039    596.68178    753.82851    1350.5103    85633.974 
WARNING: Communication cutoff 1.52 is shorter than a bond length based estimate of 1.87. This may lead to errors. (../comm.cpp:685)
WARNING: Communication cutoff 1.52 is shorter than a bond length based estimate of 1.87. This may lead to errors. (../comm.cpp:685)
WARNING: Communication cutoff 1.52 is shorter than a bond length based estimate of 1.87. This may lead to errors. (../comm.cpp:685)
WARNING: Communication cutoff 1.52 is shorter than a bond length based estimate of 1.87. This may lead to errors. (../comm.cpp:685)
WARNING: Communication cutoff 1.52 is shorter than a bond length based estimate of 1.87. This may lead to errors. (../comm.cpp:685)
WARNING: Communication cutoff 1.52 is shorter than a bond length based estimate of 1.87. This may lead to errors. (../comm.cpp:685)
WARNING: Communication cutoff 1.52 is shorter than a bond length based estimate of 1.87. This may lead to errors. (../comm.cpp:685)
    3100         15.5   0.50137927 0.0022202595    585.78437    751.31684    1337.1012    84754.393 
WARNING: Communication cutoff 1.52 is shorter than a bond length based estimate of 1.87. This may lead to errors. (../comm.cpp:685)
WARNING: Communication cutoff 1.52 is shorter than a bond length based estimate of 1.87. This may lead to errors. (../comm.cpp:685)
WARNING: Communication cutoff 1.52 is shorter than a bond length based estimate of 1.87. This may lead to errors. (../comm.cpp:685)
WARNING: Communication cutoff 1.52 is shorter than a bond length based estimate of 1.87. This may lead to errors. (../comm.cpp:685)
WARNING: Communication cutoff 1.52 is shorter than a bond length based estimate of 1.87. This may lead to errors. (../comm.cpp:685)
WARNING: Communication cutoff 1.52 is shorter than a bond length based estimate of 1.87. This may lead to errors. (../comm.cpp:685)
    3200           16   0.52584109 -4.3521062e-05    574.14114    787.97287     1362.114    83892.133 
WARNING: Communication cutoff 1.52 is shorter than a bond length based estimate of 1.87. This may lead to errors. (../comm.cpp:685)
WARNING: Communication cutoff 1.52 is shorter than a bond length based estimate of 1.87. This may lead to errors. (../comm.cpp:685)
WARNING: Communication cutoff 1.52 is shorter than a bond length based estimate of 1.87. This may lead to errors. (../comm.cpp:685)
WARNING: Communication cutoff 1.52 is shorter than a bond length based estimate of 1.87. This may lead to errors. (../comm.cpp:685)
WARNING: Communication cutoff 1.52 is shorter than a bond length based estimate of 1.87. This may lead to errors. (../comm.cpp:685)
WARNING: Communication cutoff 1.52 is shorter than a bond length based estimate of 1.87. This may lead to errors. (../comm.cpp:685)
    3300         16.5   0.50718461 0.0009018305    575.08908    760.01614    1335.1052    83046.927 
WARNING: Communication cutoff 1.52 is shorter than a bond length based estimate of 1.87. This may lead to errors. (../comm.cpp:685)
WARNING: Communication cutoff 1.52 is shorter than a bond length based estimate of 1.87. This may lead to errors. (../comm.cpp:685)
WARNING: Communication cutoff 1.52 is shorter than a bond length based estimate of 1.87. This may lead to errors. (../comm.cpp:685)
WARNING: Communication cutoff 1.52 is shorter than a bond length based estimate of 1.87. This may lead to errors. (../comm.cpp:685)
WARNING: Communication cutoff 1.52 is shorter than a bond length based estimate of 1.87. This may lead to errors. (../comm.cpp:685)
WARNING: Communication cutoff 1.52 is shorter than a bond length based estimate of 1.87. This may lead to errors. (../comm.cpp:685)
WARNING: Communication cutoff 1.52 is shorter than a bond length based estimate of 1.87. This may lead to errors. (../comm.cpp:685)
    3400           17   0.49083975 0.0030432314     565.3924    735.52337    1300.9158    82218.154 
WARNING: Communication cutoff 1.52 is shorter than a bond length based estimate of 1.87. This may lead to errors. (../comm.cpp:685)
WARNING: Communication cutoff 1.52 is shorter than a bond length based estimate of 1.87. This may lead to errors. (../comm.cpp:685)
WARNING: Communication cutoff 1.52 is shorter than a bond length based estimate of 1.87. This may lead to errors. (../comm.cpp:685)
WARNING: Communication cutoff 1.52 is shorter than a bond length based estimate of 1.87. This may lead to errors. (../comm.cpp:685)
WARNING: Communication cutoff 1.52 is shorter than a bond length based estimate of 1.87. This may lead to errors. (../comm.cpp:685)
WARNING: Communication cutoff 1.52 is shorter than a bond length based estimate of 1.87. This may lead to errors. (../comm.cpp:685)
    3500         17.5    0.4920067 -0.0022624965    571.25169    737.27204    1308.5237    81404.998 
WARNING: Communication cutoff 1.52 is shorter than a bond length based estimate of 1.87. This may lead to errors. (../comm.cpp:685)
WARNING: Communication cutoff 1.52 is shorter than a bond length based estimate of 1.87. This may lead to errors. (../comm.cpp:685)
WARNING: Communication cutoff 1.52 is shorter than a bond length based estimate of 1.87. This may lead to errors. (../comm.cpp:685)
WARNING: Communication cutoff 1.52 is shorter than a bond length based estimate of 1.87. This may lead to errors. (../comm.cpp:685)
WARNING: Communication cutoff 1.52 is shorter than a bond length based estimate of 1.87. This may lead to errors. (../comm.cpp:685)
WARNING: Communication cutoff 1.52 is shorter than a bond length based estimate of 1.87. This may lead to errors. (../comm.cpp:685)
    3600           18   0.51174798  0.005295033    551.24672    766.85435    1318.1011    80606.848 
WARNING: Communication cutoff 1.52 is shorter than a bond length based estimate of 1.87. This may lead to errors. (../comm.cpp:685)
WARNING: Communication cutoff 1.52 is shorter than a bond length based estimate of 1.87. This may lead to errors. (../comm.cpp:685)
WARNING: Communication cutoff 1.52 is shorter than a bond length based estimate of 1.87. This may lead to errors. (../comm.cpp:685)
WARNING: Communication cutoff 1.52 is shorter than a bond length based estimate of 1.87. This may lead to errors. (../comm.cpp:685)
WARNING: Communication cutoff 1.52 is shorter than a bond length based estimate of 1.87. This may lead to errors. (../comm.cpp:685)
WARNING: Communication cutoff 1.52 is shorter than a bond length based estimate of 1.87. This may lead to errors. (../comm.cpp:685)
    3700         18.5   0.51455971 -0.0096863013    574.49127    771.06773     1345.559    79823.339 
WARNING: Communication cutoff 1.52 is shorter than a bond length based estimate of 1.87. This may lead to errors. (../comm.cpp:685)
WARNING: Communication cutoff 1.52 is shorter than a bond length based estimate of 1.87. This may lead to errors. (../comm.cpp:685)
WARNING: Communication cutoff 1.52 is shorter than a bond length based estimate of 1.87. This may lead to errors. (../comm.cpp:685)
WARNING: Communication cutoff 1.52 is shorter than a bond length based estimate of 1.87. This may lead to errors. (../comm.cpp:685)
WARNING: Communication cutoff 1.52 is shorter than a bond length based estimate of 1.87. This may lead to errors. (../comm.cpp:685)
WARNING: Communication cutoff 1.52 is shorter than a bond length based estimate of 1.87. This may lead to errors. (../comm.cpp:685)
    3800           19   0.49270932 0.0011043934    586.78484    738.32491    1325.1098    79053.615 
WARNING: Communication cutoff 1.52 is shorter than a bond length based estimate of 1.87. This may lead to errors. (../comm.cpp:685)
WARNING: Communication cutoff 1.52 is shorter than a bond length based estimate of 1.87. This may lead to errors. (../comm.cpp:685)
WARNING: Communication cutoff 1.52 is shorter than a bond length based estimate of 1.87. This may lead to errors. (../comm.cpp:685)
WARNING: Communication cutoff 1.52 is shorter than a bond length based estimate of 1.87. This may lead to errors. (../comm.cpp:685)
WARNING: Communication cutoff 1.52 is shorter than a bond length based estimate of 1.87. This may lead to errors. (../comm.cpp:685)
WARNING: Communication cutoff 1.52 is shorter than a bond length based estimate of 1.87. This may lead to errors. (../comm.cpp:685)
WARNING: Communication cutoff 1.52 is shorter than a bond length based estimate of 1.87. This may lead to errors. (../comm.cpp:685)
    3900         19.5   0.49294126 -0.0023236478    571.62456    738.67248     1310.297    78297.712 
WARNING: Communication cutoff 1.52 is shorter than a bond length based estimate of 1.87. This may lead to errors. (../comm.cpp:685)
WARNING: Communication cutoff 1.52 is shorter than a bond length based estimate of 1.87. This may lead to errors. (../comm.cpp:685)
WARNING: Communication cutoff 1.52 is shorter than a bond length based estimate of 1.87. This may lead to errors. (../comm.cpp:685)
WARNING: Communication cutoff 1.52 is shorter than a bond length based estimate of 1.87. This may lead to errors. (../comm.cpp:685)
WARNING: Communication cutoff 1.52 is shorter than a bond length based estimate of 1.87. This may lead to errors. (../comm.cpp:685)
WARNING: Communication cutoff 1.52 is shorter than a bond length based estimate of 1.87. This may lead to errors. (../comm.cpp:685)
WARNING: Communication cutoff 1.52 is shorter than a bond length based estimate of 1.87. This may lead to errors. (../comm.cpp:685)
    4000           20   0.50893122 0.0027261352    556.57587    762.63344    1319.2093    77555.064 
WARNING: Communication cutoff 1.52 is shorter than a bond length based estimate of 1.87. This may lead to errors. (../comm.cpp:685)
WARNING: Communication cutoff 1.52 is shorter than a bond length based estimate of 1.87. This may lead to errors. (../comm.cpp:685)
WARNING: Communication cutoff 1.52 is shorter than a bond length based estimate of 1.87. This may lead to errors. (../comm.cpp:685)
WARNING: Communication cutoff 1.52 is shorter than a bond length based estimate of 1.87. This may lead to errors. (../comm.cpp:685)
WARNING: Communication cutoff 1.52 is shorter than a bond length based estimate of 1.87. This may lead to errors. (../comm.cpp:685)
WARNING: Communication cutoff 1.52 is shorter than a bond length based estimate of 1.87. This may lead to errors. (../comm.cpp:685)
    4100         20.5    0.5084219 0.00062711525    559.02824    761.87022    1320.8985    76825.663 
WARNING: Communication cutoff 1.52 is shorter than a bond length based estimate of 1.87. This may lead to errors. (../comm.cpp:685)
WARNING: Communication cutoff 1.52 is shorter than a bond length based estimate of 1.87. This may lead to errors. (../comm.cpp:685)
WARNING: Communication cutoff 1.52 is shorter than a bond length based estimate of 1.87. This may lead to errors. (../comm.cpp:685)
WARNING: Communication cutoff 1.52 is shorter than a bond length based estimate of 1.87. This may lead to errors. (../comm.cpp:685)
WARNING: Communication cutoff 1.52 is shorter than a bond length based estimate of 1.87. This may lead to errors. (../comm.cpp:685)
WARNING: Communication cutoff 1.52 is shorter than a bond length based estimate of 1.87. This may lead to errors. (../comm.cpp:685)
    4200           21   0.49528006 -0.0029088551    581.01472    742.17718    1323.1919    76108.832 
WARNING: Communication cutoff 1.52 is shorter than a bond length based estimate of 1.87. This may lead to errors. (../comm.cpp:685)
WARNING: Communication cutoff 1.52 is shorter than a bond length based estimate of 1.87. This may lead to errors. (../comm.cpp:685)
WARNING: Communication cutoff 1.52 is shorter than a bond length based estimate of 1.87. This may lead to errors. (../comm.cpp:685)
WARNING: Communication cutoff 1.52 is shorter than a bond length based estimate of 1.87. This may lead to errors. (../comm.cpp:685)
WARNING: Communication cutoff 1.52 is shorter than a bond length based estimate of 1.87. This may lead to errors. (../comm.cpp:685)
WARNING: Communication cutoff 1.52 is shorter than a bond length based estimate of 1.87. This may lead to errors. (../comm.cpp:685)
    4300         21.5   0.47904063 0.0064466393    559.06882    717.84239    1276.9112    75404.079 
WARNING: Communication cutoff 1.52 is shorter than a bond length based estimate of 1.87. This may lead to errors. (../comm.cpp:685)
WARNING: Communication cutoff 1.52 is shorter than a bond length based estimate of 1.87. This may lead to errors. (../comm.cpp:685)
WARNING: Communication cutoff 1.52 is shorter than a bond length based estimate of 1.87. This may lead to errors. (../comm.cpp:685)
WARNING: Communication cutoff 1.52 is shorter than a bond length based estimate of 1.87. This may lead to errors. (../comm.cpp:685)
WARNING: Communication cutoff 1.52 is shorter than a bond length based estimate of 1.87. This may lead to errors. (../comm.cpp:685)
WARNING: Communication cutoff 1.52 is shorter than a bond length based estimate of 1.87. This may lead to errors. (../comm.cpp:685)
    4400           22   0.49459271 -0.0013322512    582.32796    741.14718    1323.4751     74711.14 
WARNING: Communication cutoff 1.52 is shorter than a bond length based estimate of 1.87. This may lead to errors. (../comm.cpp:685)
WARNING: Communication cutoff 1.52 is shorter than a bond length based estimate of 1.87. This may lead to errors. (../comm.cpp:685)
WARNING: Communication cutoff 1.52 is shorter than a bond length based estimate of 1.87. This may lead to errors. (../comm.cpp:685)
WARNING: Communication cutoff 1.52 is shorter than a bond length based estimate of 1.87. This may lead to errors. (../comm.cpp:685)
WARNING: Communication cutoff 1.52 is shorter than a bond length based estimate of 1.87. This may lead to errors. (../comm.cpp:685)
WARNING: Communication cutoff 1.52 is shorter than a bond length based estimate of 1.87. This may lead to errors. (../comm.cpp:685)
WARNING: Communication cutoff 1.52 is shorter than a bond length based estimate of 1.87. This may lead to errors. (../comm.cpp:685)
    4500         22.5   0.52262868 0.0036606888    552.93792    783.15907     1336.097    74029.787 
WARNING: Communication cutoff 1.52 is shorter than a bond length based estimate of 1.87. This may lead to errors. (../comm.cpp:685)
WARNING: Communication cutoff 1.52 is shorter than a bond length based estimate of 1.87. This may lead to errors. (../comm.cpp:685)
WARNING: Communication cutoff 1.52 is shorter than a bond length based estimate of 1.87. This may lead to errors. (../comm.cpp:685)
WARNING: Communication cutoff 1.52 is shorter than a bond length based estimate of 1.87. This may lead to errors. (../comm.cpp:685)
WARNING: Communication cutoff 1.52 is shorter than a bond length based estimate of 1.87. This may lead to errors. (../comm.cpp:685)
WARNING: Communication cutoff 1.52 is shorter than a bond length based estimate of 1.87. This may lead to errors. (../comm.cpp:685)
    4600           23   0.50318996 0.0011030102    579.95103    754.03015    1333.9812    73359.786 
WARNING: Communication cutoff 1.52 is shorter than a bond length based estimate of 1.87. This may lead to errors. (../comm.cpp:685)
WARNING: Communication cutoff 1.52 is shorter than a bond length based estimate of 1.87. This may lead to errors. (../comm.cpp:685)
WARNING: Communication cutoff 1.52 is shorter than a bond length based estimate of 1.87. This may lead to errors. (../comm.cpp:685)
WARNING: Communication cutoff 1.52 is shorter than a bond length based estimate of 1.87. This may lead to errors. (../comm.cpp:685)
WARNING: Communication cutoff 1.52 is shorter than a bond length based estimate of 1.87. This may lead to errors. (../comm.cpp:685)
WARNING: Communication cutoff 1.52 is shorter than a bond length based estimate of 1.87. This may lead to errors. (../comm.cpp:685)
    4700         23.5   0.49829677 -0.0038301361    586.61614    746.69772    1333.3139    72700.365 
WARNING: Communication cutoff 1.52 is shorter than a bond length based estimate of 1.87. This may lead to errors. (../comm.cpp:685)
WARNING: Communication cutoff 1.52 is shorter than a bond length based estimate of 1.87. This may lead to errors. (../comm.cpp:685)
WARNING: Communication cutoff 1.52 is shorter than a bond length based estimate of 1.87. This may lead to errors. (../comm.cpp:685)
WARNING: Communication cutoff 1.52 is shorter than a bond length based estimate of 1.87. This may lead to errors. (../comm.cpp:685)
WARNING: Communication cutoff 1.52 is shorter than a bond length based estimate of 1.87. This may lead to errors. (../comm.cpp:685)
WARNING: Communication cutoff 1.52 is shorter than a bond length based estimate of 1.87. This may lead to errors. (../comm.cpp:685)
    4800           24   0.49721223 0.0065795306    571.33926    745.07253    1316.4118    72051.159 
WARNING: Communication cutoff 1.52 is shorter than a bond length based estimate of 1.87. This may lead to errors. (../comm.cpp:685)
WARNING: Communication cutoff 1.52 is shorter than a bond length based estimate of 1.87. This may lead to errors. (../comm.cpp:685)
WARNING: Communication cutoff 1.52 is shorter than a bond length based estimate of 1.87. This may lead to errors. (../comm.cpp:685)
WARNING: Communication cutoff 1.52 is shorter than a bond length based estimate of 1.87. This may lead to errors. (../comm.cpp:685)
WARNING: Communication cutoff 1.52 is shorter than a bond length based estimate of 1.87. This may lead to errors. (../comm.cpp:685)
WARNING: Communication cutoff 1.52 is shorter than a bond length based estimate of 1.87. This may lead to errors. (../comm.cpp:685)
WARNING: Communication cutoff 1.52 is shorter than a bond length based estimate of 1.87. This may lead to errors. (../comm.cpp:685)
    4900         24.5   0.49631183 -0.0020978546    593.70511    743.72328    1337.4284    71412.397 
WARNING: Communication cutoff 1.52 is shorter than a bond length based estimate of 1.87. This may lead to errors. (../comm.cpp:685)
WARNING: Communication cutoff 1.52 is shorter than a bond length based estimate of 1.87. This may lead to errors. (../comm.cpp:685)
WARNING: Communication cutoff 1.52 is shorter than a bond length based estimate of 1.87. This may lead to errors. (../comm.cpp:685)
WARNING: Communication cutoff 1.52 is shorter than a bond length based estimate of 1.87. This may lead to errors. (../comm.cpp:685)
WARNING: Communication cutoff 1.52 is shorter than a bond length based estimate of 1.87. This may lead to errors. (../comm.cpp:685)
WARNING: Communication cutoff 1.52 is shorter than a bond length based estimate of 1.87. This may lead to errors. (../comm.cpp:685)
WARNING: Communication cutoff 1.52 is shorter than a bond length based estimate of 1.87. This may lead to errors. (../comm.cpp:685)
    5000           25   0.50866446 0.0033938487    574.09772    762.23369    1336.3314    70783.865 
WARNING: Communication cutoff 1.52 is shorter than a bond length based estimate of 1.87. This may lead to errors. (../comm.cpp:685)
WARNING: Communication cutoff 1.52 is shorter than a bond length based estimate of 1.87. This may lead to errors. (../comm.cpp:685)
WARNING: Communication cutoff 1.52 is shorter than a bond length based estimate of 1.87. This may lead to errors. (../comm.cpp:685)
WARNING: Communication cutoff 1.52 is shorter than a bond length based estimate of 1.87. This may lead to errors. (../comm.cpp:685)
WARNING: Communication cutoff 1.52 is shorter than a bond length based estimate of 1.87. This may lead to errors. (../comm.cpp:685)
WARNING: Communication cutoff 1.52 is shorter than a bond length based estimate of 1.87. This may lead to errors. (../comm.cpp:685)
    5100         25.5   0.49555551 -0.00089186214    564.66474    742.58993    1307.2547    70165.108 
WARNING: Communication cutoff 1.52 is shorter than a bond length based estimate of 1.87. This may lead to errors. (../comm.cpp:685)
WARNING: Communication cutoff 1.52 is shorter than a bond length based estimate of 1.87. This may lead to errors. (../comm.cpp:685)
WARNING: Communication cutoff 1.52 is shorter than a bond length based estimate of 1.87. This may lead to errors. (../comm.cpp:685)
WARNING: Communication cutoff 1.52 is shorter than a bond length based estimate of 1.87. This may lead to errors. (../comm.cpp:685)
WARNING: Communication cutoff 1.52 is shorter than a bond length based estimate of 1.87. This may lead to errors. (../comm.cpp:685)
WARNING: Communication cutoff 1.52 is shorter than a bond length based estimate of 1.87. This may lead to errors. (../comm.cpp:685)
    5200           26   0.50365707 0.0041570388    568.02687    754.73011     1322.757    69556.077 
WARNING: Communication cutoff 1.52 is shorter than a bond length based estimate of 1.87. This may lead to errors. (../comm.cpp:685)
WARNING: Communication cutoff 1.52 is shorter than a bond length based estimate of 1.87. This may lead to errors. (../comm.cpp:685)
WARNING: Communication cutoff 1.52 is shorter than a bond length based estimate of 1.87. This may lead to errors. (../comm.cpp:685)
WARNING: Communication cutoff 1.52 is shorter than a bond length based estimate of 1.87. This may lead to errors. (../comm.cpp:685)
WARNING: Communication cutoff 1.52 is shorter than a bond length based estimate of 1.87. This may lead to errors. (../comm.cpp:685)
WARNING: Communication cutoff 1.52 is shorter than a bond length based estimate of 1.87. This may lead to errors. (../comm.cpp:685)
    5300         26.5   0.49628317 0.0033363026    581.15453    743.68033    1324.8349      68956.5 
WARNING: Communication cutoff 1.52 is shorter than a bond length based estimate of 1.87. This may lead to errors. (../comm.cpp:685)
WARNING: Communication cutoff 1.52 is shorter than a bond length based estimate of 1.87. This may lead to errors. (../comm.cpp:685)
WARNING: Communication cutoff 1.52 is shorter than a bond length based estimate of 1.87. This may lead to errors. (../comm.cpp:685)
WARNING: Communication cutoff 1.52 is shorter than a bond length based estimate of 1.87. This may lead to errors. (../comm.cpp:685)
WARNING: Communication cutoff 1.52 is shorter than a bond length based estimate of 1.87. This may lead to errors. (../comm.cpp:685)
WARNING: Communication cutoff 1.52 is shorter than a bond length based estimate of 1.87. This may lead to errors. (../comm.cpp:685)
WARNING: Communication cutoff 1.52 is shorter than a bond length based estimate of 1.87. This may lead to errors. (../comm.cpp:685)
    5400           27   0.51943216 -0.0055293789    581.56118    778.36909    1359.9303     68366.02 
WARNING: Communication cutoff 1.52 is shorter than a bond length based estimate of 1.87. This may lead to errors. (../comm.cpp:685)
WARNING: Communication cutoff 1.52 is shorter than a bond length based estimate of 1.87. This may lead to errors. (../comm.cpp:685)
WARNING: Communication cutoff 1.52 is shorter than a bond length based estimate of 1.87. This may lead to errors. (../comm.cpp:685)
WARNING: Communication cutoff 1.52 is shorter than a bond length based estimate of 1.87. This may lead to errors. (../comm.cpp:685)
WARNING: Communication cutoff 1.52 is shorter than a bond length based estimate of 1.87. This may lead to errors. (../comm.cpp:685)
WARNING: Communication cutoff 1.52 is shorter than a bond length based estimate of 1.87. This may lead to errors. (../comm.cpp:685)
    5500         27.5   0.51551748 0.0062867949    575.29518    772.50294    1347.7981    67784.362 
WARNING: Communication cutoff 1.52 is shorter than a bond length based estimate of 1.87. This may lead to errors. (../comm.cpp:685)
WARNING: Communication cutoff 1.52 is shorter than a bond length based estimate of 1.87. This may lead to errors. (../comm.cpp:685)
WARNING: Communication cutoff 1.52 is shorter than a bond length based estimate of 1.87. This may lead to errors. (../comm.cpp:685)
WARNING: Communication cutoff 1.52 is shorter than a bond length based estimate of 1.87. This may lead to errors. (../comm.cpp:685)
WARNING: Communication cutoff 1.52 is shorter than a bond length based estimate of 1.87. This may lead to errors. (../comm.cpp:685)
    5600           28   0.52623491 -0.00094008865    546.74309    788.56301    1335.3061    67211.286 
WARNING: Communication cutoff 1.52 is shorter than a bond length based estimate of 1.87. This may lead to errors. (../comm.cpp:685)
WARNING: Communication cutoff 1.52 is shorter than a bond length based estimate of 1.87. This may lead to errors. (../comm.cpp:685)
WARNING: Communication cutoff 1.52 is shorter than a bond length based estimate of 1.87. This may lead to errors. (../comm.cpp:685)
WARNING: Communication cutoff 1.52 is shorter than a bond length based estimate of 1.87. This may lead to errors. (../comm.cpp:685)
WARNING: Communication cutoff 1.52 is shorter than a bond length based estimate of 1.87. This may lead to errors. (../comm.cpp:685)
WARNING: Communication cutoff 1.52 is shorter than a bond length based estimate of 1.87. This may lead to errors. (../comm.cpp:685)
    5700         28.5   0.50603316 -0.0046836215    576.10383    758.29068    1334.3945     66646.73 
WARNING: Communication cutoff 1.52 is shorter than a bond length based estimate of 1.87. This may lead to errors. (../comm.cpp:685)
WARNING: Communication cutoff 1.52 is shorter than a bond length based estimate of 1.87. This may lead to errors. (../comm.cpp:685)
WARNING: Communication cutoff 1.52 is shorter than a bond length based estimate of 1.87. This may lead to errors. (../comm.cpp:685)
WARNING: Communication cutoff 1.52 is shorter than a bond length based estimate of 1.87. This may lead to errors. (../comm.cpp:685)
WARNING: Communication cutoff 1.52 is shorter than a bond length based estimate of 1.87. This may lead to errors. (../comm.cpp:685)
WARNING: Communication cutoff 1.52 is shorter than a bond length based estimate of 1.87. This may lead to errors. (../comm.cpp:685)
WARNING: Communication cutoff 1.52 is shorter than a bond length based estimate of 1.87. This may lead to errors. (../comm.cpp:685)
    5800           29   0.53075534 0.0087902741    569.08396    795.33688    1364.4208     66090.42 
WARNING: Communication cutoff 1.52 is shorter than a bond length based estimate of 1.87. This may lead to errors. (../comm.cpp:685)
WARNING: Communication cutoff 1.52 is shorter than a bond length based estimate of 1.87. This may lead to errors. (../comm.cpp:685)
WARNING: Communication cutoff 1.52 is shorter than a bond length based estimate of 1.87. This may lead to errors. (../comm.cpp:685)
WARNING: Communication cutoff 1.52 is shorter than a bond length based estimate of 1.87. This may lead to errors. (../comm.cpp:685)
WARNING: Communication cutoff 1.52 is shorter than a bond length based estimate of 1.87. This may lead to errors. (../comm.cpp:685)
WARNING: Communication cutoff 1.52 is shorter than a bond length based estimate of 1.87. This may lead to errors. (../comm.cpp:685)
    5900         29.5    0.4893489 -0.0021212184    582.17005    733.28932    1315.4594    65542.165 
WARNING: Communication cutoff 1.52 is shorter than a bond length based estimate of 1.87. This may lead to errors. (../comm.cpp:685)
WARNING: Communication cutoff 1.52 is shorter than a bond length based estimate of 1.87. This may lead to errors. (../comm.cpp:685)
WARNING: Communication cutoff 1.52 is shorter than a bond length based estimate of 1.87. This may lead to errors. (../comm.cpp:685)
WARNING: Communication cutoff 1.52 is shorter than a bond length based estimate of 1.87. This may lead to errors. (../comm.cpp:685)
WARNING: Communication cutoff 1.52 is shorter than a bond length based estimate of 1.87. This may lead to errors. (../comm.cpp:685)
WARNING: Communication cutoff 1.52 is shorter than a bond length based estimate of 1.87. This may lead to errors. (../comm.cpp:685)
    6000           30   0.47845413 -0.0025478846     590.8115    716.96351     1307.775     65001.92 
WARNING: Communication cutoff 1.52 is shorter than a bond length based estimate of 1.87. This may lead to errors. (../comm.cpp:685)
WARNING: Communication cutoff 1.52 is shorter than a bond length based estimate of 1.87. This may lead to errors. (../comm.cpp:685)
WARNING: Communication cutoff 1.52 is shorter than a bond length based estimate of 1.87. This may lead to errors. (../comm.cpp:685)
WARNING: Communication cutoff 1.52 is shorter than a bond length based estimate of 1.87. This may lead to errors. (../comm.cpp:685)
WARNING: Communication cutoff 1.52 is shorter than a bond length based estimate of 1.87. This may lead to errors. (../comm.cpp:685)
WARNING: Communication cutoff 1.52 is shorter than a bond length based estimate of 1.87. This may lead to errors. (../comm.cpp:685)
    6100         30.5   0.47625467  0.004454497     568.3019    713.66762    1281.9695    64469.315 
WARNING: Communication cutoff 1.52 is shorter than a bond length based estimate of 1.87. This may lead to errors. (../comm.cpp:685)
WARNING: Communication cutoff 1.52 is shorter than a bond length based estimate of 1.87. This may lead to errors. (../comm.cpp:685)
WARNING: Communication cutoff 1.52 is shorter than a bond length based estimate of 1.87. This may lead to errors. (../comm.cpp:685)
WARNING: Communication cutoff 1.52 is shorter than a bond length based estimate of 1.87. This may lead to errors. (../comm.cpp:685)
WARNING: Communication cutoff 1.52 is shorter than a bond length based estimate of 1.87. This may lead to errors. (../comm.cpp:685)
WARNING: Communication cutoff 1.52 is shorter than a bond length based estimate of 1.87. This may lead to errors. (../comm.cpp:685)
    6200           31   0.48081185 -0.00036370667    564.20722    720.49656    1284.7038    63944.288 
WARNING: Communication cutoff 1.52 is shorter than a bond length based estimate of 1.87. This may lead to errors. (../comm.cpp:685)
WARNING: Communication cutoff 1.52 is shorter than a bond length based estimate of 1.87. This may lead to errors. (../comm.cpp:685)
WARNING: Communication cutoff 1.52 is shorter than a bond length based estimate of 1.87. This may lead to errors. (../comm.cpp:685)
WARNING: Communication cutoff 1.52 is shorter than a bond length based estimate of 1.87. This may lead to errors. (../comm.cpp:685)
WARNING: Communication cutoff 1.52 is shorter than a bond length based estimate of 1.87. This may lead to errors. (../comm.cpp:685)
WARNING: Communication cutoff 1.52 is shorter than a bond length based estimate of 1.87. This may lead to errors. (../comm.cpp:685)
    6300         31.5   0.48292874   0.01040865    553.21362    723.66872    1276.8823    63426.833 
WARNING: Communication cutoff 1.52 is shorter than a bond length based estimate of 1.87. This may lead to errors. (../comm.cpp:685)
WARNING: Communication cutoff 1.52 is shorter than a bond length based estimate of 1.87. This may lead to errors. (../comm.cpp:685)
WARNING: Communication cutoff 1.52 is shorter than a bond length based estimate of 1.87. This may lead to errors. (../comm.cpp:685)
WARNING: Communication cutoff 1.52 is shorter than a bond length based estimate of 1.87. This may lead to errors. (../comm.cpp:685)
WARNING: Communication cutoff 1.52 is shorter than a bond length based estimate of 1.87. This may lead to errors. (../comm.cpp:685)
WARNING: Communication cutoff 1.52 is shorter than a bond length based estimate of 1.87. This may lead to errors. (../comm.cpp:685)
    6400           32   0.49775686 -0.010051898    561.67941    745.88866    1307.5681    62916.633 
WARNING: Communication cutoff 1.52 is shorter than a bond length based estimate of 1.87. This may lead to errors. (../comm.cpp:685)
WARNING: Communication cutoff 1.52 is shorter than a bond length based estimate of 1.87. This may lead to errors. (../comm.cpp:685)
WARNING: Communication cutoff 1.52 is shorter than a bond length based estimate of 1.87. This may lead to errors. (../comm.cpp:685)
WARNING: Communication cutoff 1.52 is shorter than a bond length based estimate of 1.87. This may lead to errors. (../comm.cpp:685)
WARNING: Communication cutoff 1.52 is shorter than a bond length based estimate of 1.87. This may lead to errors. (../comm.cpp:685)
WARNING: Communication cutoff 1.52 is shorter than a bond length based estimate of 1.87. This may lead to errors. (../comm.cpp:685)
    6500         32.5   0.50970534 0.0083631534    593.56179    763.79346    1357.3552     62413.49 
WARNING: Communication cutoff 1.52 is shorter than a bond length based estimate of 1.87. This may lead to errors. (../comm.cpp:685)
WARNING: Communication cutoff 1.52 is shorter than a bond length based estimate of 1.87. This may lead to errors. (../comm.cpp:685)
WARNING: Communication cutoff 1.52 is shorter than a bond length based estimate of 1.87. This may lead to errors. (../comm.cpp:685)
WARNING: Communication cutoff 1.52 is shorter than a bond length based estimate of 1.87. This may lead to errors. (../comm.cpp:685)
WARNING: Communication cutoff 1.52 is shorter than a bond length based estimate of 1.87. This may lead to errors. (../comm.cpp:685)
WARNING: Communication cutoff 1.52 is shorter than a bond length based estimate of 1.87. This may lead to errors. (../comm.cpp:685)
WARNING: Communication cutoff 1.52 is shorter than a bond length based estimate of 1.87. This may lead to errors. (../comm.cpp:685)
    6600           33   0.49786155 -0.003466147    585.89815    746.04553    1331.9437    61917.362 
WARNING: Communication cutoff 1.52 is shorter than a bond length based estimate of 1.87. This may lead to errors. (../comm.cpp:685)
WARNING: Communication cutoff 1.52 is shorter than a bond length based estimate of 1.87. This may lead to errors. (../comm.cpp:685)
WARNING: Communication cutoff 1.52 is shorter than a bond length based estimate of 1.87. This may lead to errors. (../comm.cpp:685)
WARNING: Communication cutoff 1.52 is shorter than a bond length based estimate of 1.87. This may lead to errors. (../comm.cpp:685)
WARNING: Communication cutoff 1.52 is shorter than a bond length based estimate of 1.87. This may lead to errors. (../comm.cpp:685)
WARNING: Communication cutoff 1.52 is shorter than a bond length based estimate of 1.87. This may lead to errors. (../comm.cpp:685)
    6700         33.5   0.49292503 -0.00026372353     602.1147    738.64815    1340.7629    61427.762 
WARNING: Communication cutoff 1.52 is shorter than a bond length based estimate of 1.87. This may lead to errors. (../comm.cpp:685)
WARNING: Communication cutoff 1.52 is shorter than a bond length based estimate of 1.87. This may lead to errors. (../comm.cpp:685)
WARNING: Communication cutoff 1.52 is shorter than a bond length based estimate of 1.87. This may lead to errors. (../comm.cpp:685)
WARNING: Communication cutoff 1.52 is shorter than a bond length based estimate of 1.87. This may lead to errors. (../comm.cpp:685)
WARNING: Communication cutoff 1.52 is shorter than a bond length based estimate of 1.87. This may lead to errors. (../comm.cpp:685)
WARNING: Communication cutoff 1.52 is shorter than a bond length based estimate of 1.87. This may lead to errors. (../comm.cpp:685)
    6800           34   0.50016008 0.0056797781    598.76894    749.48988    1348.2588    60944.753 
WARNING: Communication cutoff 1.52 is shorter than a bond length based estimate of 1.87. This may lead to errors. (../comm.cpp:685)
WARNING: Communication cutoff 1.52 is shorter than a bond length based estimate of 1.87. This may lead to errors. (../comm.cpp:685)
WARNING: Communication cutoff 1.52 is shorter than a bond length based estimate of 1.87. This may lead to errors. (../comm.cpp:685)
WARNING: Communication cutoff 1.52 is shorter than a bond length based estimate of 1.87. This may lead to errors. (../comm.cpp:685)
WARNING: Communication cutoff 1.52 is shorter than a bond length based estimate of 1.87. This may lead to errors. (../comm.cpp:685)
WARNING: Communication cutoff 1.52 is shorter than a bond length based estimate of 1.87. This may lead to errors. (../comm.cpp:685)
    6900         34.5   0.51725562 -0.0052636931    577.38385    775.10755    1352.4914    60468.196 
WARNING: Communication cutoff 1.52 is shorter than a bond length based estimate of 1.87. This may lead to errors. (../comm.cpp:685)
WARNING: Communication cutoff 1.52 is shorter than a bond length based estimate of 1.87. This may lead to errors. (../comm.cpp:685)
WARNING: Communication cutoff 1.52 is shorter than a bond length based estimate of 1.87. This may lead to errors. (../comm.cpp:685)
WARNING: Communication cutoff 1.52 is shorter than a bond length based estimate of 1.87. This may lead to errors. (../comm.cpp:685)
WARNING: Communication cutoff 1.52 is shorter than a bond length based estimate of 1.87. This may lead to errors. (../comm.cpp:685)
WARNING: Communication cutoff 1.52 is shorter than a bond length based estimate of 1.87. This may lead to errors. (../comm.cpp:685)
    7000           35   0.50262234 0.0049967399    588.85284    753.17957    1342.0324    59997.943 
WARNING: Communication cutoff 1.52 is shorter than a bond length based estimate of 1.87. This may lead to errors. (../comm.cpp:685)
WARNING: Communication cutoff 1.52 is shorter than a bond length based estimate of 1.87. This may lead to errors. (../comm.cpp:685)
WARNING: Communication cutoff 1.52 is shorter than a bond length based estimate of 1.87. This may lead to errors. (../comm.cpp:685)
WARNING: Communication cutoff 1.52 is shorter than a bond length based estimate of 1.87. This may lead to errors. (../comm.cpp:685)
WARNING: Communication cutoff 1.52 is shorter than a bond length based estimate of 1.87. This may lead to errors. (../comm.cpp:685)
WARNING: Communication cutoff 1.52 is shorter than a bond length based estimate of 1.87. This may lead to errors. (../comm.cpp:685)
    7100         35.5   0.50450498 0.00027580206    568.02153    756.00072    1324.0222    59534.084 
WARNING: Communication cutoff 1.52 is shorter than a bond length based estimate of 1.87. This may lead to errors. (../comm.cpp:685)
WARNING: Communication cutoff 1.52 is shorter than a bond length based estimate of 1.87. This may lead to errors. (../comm.cpp:685)
WARNING: Communication cutoff 1.52 is shorter than a bond length based estimate of 1.87. This may lead to errors. (../comm.cpp:685)
WARNING: Communication cutoff 1.52 is shorter than a bond length based estimate of 1.87. This may lead to errors. (../comm.cpp:685)
WARNING: Communication cutoff 1.52 is shorter than a bond length based estimate of 1.87. This may lead to errors. (../comm.cpp:685)
WARNING: Communication cutoff 1.52 is shorter than a bond length based estimate of 1.87. This may lead to errors. (../comm.cpp:685)
    7200           36   0.49132031 0.0059296603     559.3323    736.24348    1295.5758    59076.571 
WARNING: Communication cutoff 1.52 is shorter than a bond length based estimate of 1.87. This may lead to errors. (../comm.cpp:685)
WARNING: Communication cutoff 1.52 is shorter than a bond length based estimate of 1.87. This may lead to errors. (../comm.cpp:685)
WARNING: Communication cutoff 1.52 is shorter than a bond length based estimate of 1.87. This may lead to errors. (../comm.cpp:685)
WARNING: Communication cutoff 1.52 is shorter than a bond length based estimate of 1.87. This may lead to errors. (../comm.cpp:685)
WARNING: Communication cutoff 1.52 is shorter than a bond length based estimate of 1.87. This may lead to errors. (../comm.cpp:685)
WARNING: Communication cutoff 1.52 is shorter than a bond length based estimate of 1.87. This may lead to errors. (../comm.cpp:685)
WARNING: Communication cutoff 1.52 is shorter than a bond length based estimate of 1.87. This may lead to errors. (../comm.cpp:685)
    7300         36.5   0.49401803 0.0012046097    568.30122    740.28601    1308.5872    58625.291 
WARNING: Communication cutoff 1.52 is shorter than a bond length based estimate of 1.87. This may lead to errors. (../comm.cpp:685)
WARNING: Communication cutoff 1.52 is shorter than a bond length based estimate of 1.87. This may lead to errors. (../comm.cpp:685)
WARNING: Communication cutoff 1.52 is shorter than a bond length based estimate of 1.87. This may lead to errors. (../comm.cpp:685)
WARNING: Communication cutoff 1.52 is shorter than a bond length based estimate of 1.87. This may lead to errors. (../comm.cpp:685)
WARNING: Communication cutoff 1.52 is shorter than a bond length based estimate of 1.87. This may lead to errors. (../comm.cpp:685)
WARNING: Communication cutoff 1.52 is shorter than a bond length based estimate of 1.87. This may lead to errors. (../comm.cpp:685)
    7400           37   0.47710609 0.00055730703    579.37532    714.94348    1294.3188    58179.833 
WARNING: Communication cutoff 1.52 is shorter than a bond length based estimate of 1.87. This may lead to errors. (../comm.cpp:685)
WARNING: Communication cutoff 1.52 is shorter than a bond length based estimate of 1.87. This may lead to errors. (../comm.cpp:685)
WARNING: Communication cutoff 1.52 is shorter than a bond length based estimate of 1.87. This may lead to errors. (../comm.cpp:685)
WARNING: Communication cutoff 1.52 is shorter than a bond length based estimate of 1.87. This may lead to errors. (../comm.cpp:685)
WARNING: Communication cutoff 1.52 is shorter than a bond length based estimate of 1.87. This may lead to errors. (../comm.cpp:685)
WARNING: Communication cutoff 1.52 is shorter than a bond length based estimate of 1.87. This may lead to errors. (../comm.cpp:685)
    7500         37.5   0.51186856 0.0075116927    572.30605    767.03503    1339.3411    57740.151 
WARNING: Communication cutoff 1.52 is shorter than a bond length based estimate of 1.87. This may lead to errors. (../comm.cpp:685)
WARNING: Communication cutoff 1.52 is shorter than a bond length based estimate of 1.87. This may lead to errors. (../comm.cpp:685)
WARNING: Communication cutoff 1.52 is shorter than a bond length based estimate of 1.87. This may lead to errors. (../comm.cpp:685)
WARNING: Communication cutoff 1.52 is shorter than a bond length based estimate of 1.87. This may lead to errors. (../comm.cpp:685)
WARNING: Communication cutoff 1.52 is shorter than a bond length based estimate of 1.87. This may lead to errors. (../comm.cpp:685)
    7600           38   0.48681278 -0.0047335821    593.08306    729.48896     1322.572    57306.238 
WARNING: Communication cutoff 1.52 is shorter than a bond length based estimate of 1.87. This may lead to errors. (../comm.cpp:685)
WARNING: Communication cutoff 1.52 is shorter than a bond length based estimate of 1.87. This may lead to errors. (../comm.cpp:685)
WARNING: Communication cutoff 1.52 is shorter than a bond length based estimate of 1.87. This may lead to errors. (../comm.cpp:685)
WARNING: Communication cutoff 1.52 is shorter than a bond length based estimate of 1.87. This may lead to errors. (../comm.cpp:685)
WARNING: Communication cutoff 1.52 is shorter than a bond length based estimate of 1.87. This may lead to errors. (../comm.cpp:685)
WARNING: Communication cutoff 1.52 is shorter than a bond length based estimate of 1.87. This may lead to errors. (../comm.cpp:685)
    7700         38.5   0.47863438 0.0041231293    556.82504    717.23362    1274.0587    56877.887 
WARNING: Communication cutoff 1.52 is shorter than a bond length based estimate of 1.87. This may lead to errors. (../comm.cpp:685)
WARNING: Communication cutoff 1.52 is shorter than a bond length based estimate of 1.87. This may lead to errors. (../comm.cpp:685)
WARNING: Communication cutoff 1.52 is shorter than a bond length based estimate of 1.87. This may lead to errors. (../comm.cpp:685)
WARNING: Communication cutoff 1.52 is shorter than a bond length based estimate of 1.87. This may lead to errors. (../comm.cpp:685)
WARNING: Communication cutoff 1.52 is shorter than a bond length based estimate of 1.87. This may lead to errors. (../comm.cpp:685)
WARNING: Communication cutoff 1.52 is shorter than a bond length based estimate of 1.87. This may lead to errors. (../comm.cpp:685)
    7800           39   0.48403469 0.00088530691    554.06409    725.32598    1279.3901    56455.049 
WARNING: Communication cutoff 1.52 is shorter than a bond length based estimate of 1.87. This may lead to errors. (../comm.cpp:685)
WARNING: Communication cutoff 1.52 is shorter than a bond length based estimate of 1.87. This may lead to errors. (../comm.cpp:685)
WARNING: Communication cutoff 1.52 is shorter than a bond length based estimate of 1.87. This may lead to errors. (../comm.cpp:685)
WARNING: Communication cutoff 1.52 is shorter than a bond length based estimate of 1.87. This may lead to errors. (../comm.cpp:685)
WARNING: Communication cutoff 1.52 is shorter than a bond length based estimate of 1.87. This may lead to errors. (../comm.cpp:685)
WARNING: Communication cutoff 1.52 is shorter than a bond length based estimate of 1.87. This may lead to errors. (../comm.cpp:685)
    7900         39.5   0.48678688 0.0022985453    550.84267    729.45014    1280.2928    56037.615 
WARNING: Communication cutoff 1.52 is shorter than a bond length based estimate of 1.87. This may lead to errors. (../comm.cpp:685)
WARNING: Communication cutoff 1.52 is shorter than a bond length based estimate of 1.87. This may lead to errors. (../comm.cpp:685)
WARNING: Communication cutoff 1.52 is shorter than a bond length based estimate of 1.87. This may lead to errors. (../comm.cpp:685)
WARNING: Communication cutoff 1.52 is shorter than a bond length based estimate of 1.87. This may lead to errors. (../comm.cpp:685)
WARNING: Communication cutoff 1.52 is shorter than a bond length based estimate of 1.87. This may lead to errors. (../comm.cpp:685)
WARNING: Communication cutoff 1.52 is shorter than a bond length based estimate of 1.87. This may lead to errors. (../comm.cpp:685)
    8000           40   0.49361802 -0.00074587565    584.75801     739.6866    1324.4446    55625.364 
WARNING: Communication cutoff 1.52 is shorter than a bond length based estimate of 1.87. This may lead to errors. (../comm.cpp:685)
WARNING: Communication cutoff 1.52 is shorter than a bond length based estimate of 1.87. This may lead to errors. (../comm.cpp:685)
WARNING: Communication cutoff 1.52 is shorter than a bond length based estimate of 1.87. This may lead to errors. (../comm.cpp:685)
WARNING: Communication cutoff 1.52 is shorter than a bond length based estimate of 1.87. This may lead to errors. (../comm.cpp:685)
WARNING: Communication cutoff 1.52 is shorter than a bond length based estimate of 1.87. This may lead to errors. (../comm.cpp:685)
WARNING: Communication cutoff 1.52 is shorter than a bond length based estimate of 1.87. This may lead to errors. (../comm.cpp:685)
    8100         40.5   0.52179855  0.004379211    534.36064    781.91513    1316.2758    55218.136 
WARNING: Communication cutoff 1.52 is shorter than a bond length based estimate of 1.87. This may lead to errors. (../comm.cpp:685)
WARNING: Communication cutoff 1.52 is shorter than a bond length based estimate of 1.87. This may lead to errors. (../comm.cpp:685)
WARNING: Communication cutoff 1.52 is shorter than a bond length based estimate of 1.87. This may lead to errors. (../comm.cpp:685)
WARNING: Communication cutoff 1.52 is shorter than a bond length based estimate of 1.87. This may lead to errors. (../comm.cpp:685)
WARNING: Communication cutoff 1.52 is shorter than a bond length based estimate of 1.87. This may lead to errors. (../comm.cpp:685)
WARNING: Communication cutoff 1.52 is shorter than a bond length based estimate of 1.87. This may lead to errors. (../comm.cpp:685)
    8200           41    0.4941959 0.0010447695    574.16548    740.55256     1314.718    54816.037 
WARNING: Communication cutoff 1.52 is shorter than a bond length based estimate of 1.87. This may lead to errors. (../comm.cpp:685)
WARNING: Communication cutoff 1.52 is shorter than a bond length based estimate of 1.87. This may lead to errors. (../comm.cpp:685)
WARNING: Communication cutoff 1.52 is shorter than a bond length based estimate of 1.87. This may lead to errors. (../comm.cpp:685)
WARNING: Communication cutoff 1.52 is shorter than a bond length based estimate of 1.87. This may lead to errors. (../comm.cpp:685)
WARNING: Communication cutoff 1.52 is shorter than a bond length based estimate of 1.87. This may lead to errors. (../comm.cpp:685)
[...]
  197800          989   0.48082405   0.48423378    610.68184    720.51485    1331.1967    1965.1517 
WARNING: Communication cutoff 1.52 is shorter than a bond length based estimate of 1.87. This may lead to errors. (../comm.cpp:685)
WARNING: Communication cutoff 1.52 is shorter than a bond length based estimate of 1.87. This may lead to errors. (../comm.cpp:685)
WARNING: Communication cutoff 1.52 is shorter than a bond length based estimate of 1.87. This may lead to errors. (../comm.cpp:685)
WARNING: Communication cutoff 1.52 is shorter than a bond length based estimate of 1.87. This may lead to errors. (../comm.cpp:685)
WARNING: Communication cutoff 1.52 is shorter than a bond length based estimate of 1.87. This may lead to errors. (../comm.cpp:685)
  197900        989.5   0.49381308   0.41650275    623.92284     739.9789    1363.9017    1964.6773 
WARNING: Communication cutoff 1.52 is shorter than a bond length based estimate of 1.87. This may lead to errors. (../comm.cpp:685)
WARNING: Communication cutoff 1.52 is shorter than a bond length based estimate of 1.87. This may lead to errors. (../comm.cpp:685)
WARNING: Communication cutoff 1.52 is shorter than a bond length based estimate of 1.87. This may lead to errors. (../comm.cpp:685)
WARNING: Communication cutoff 1.52 is shorter than a bond length based estimate of 1.87. This may lead to errors. (../comm.cpp:685)
WARNING: Communication cutoff 1.52 is shorter than a bond length based estimate of 1.87. This may lead to errors. (../comm.cpp:685)
WARNING: Communication cutoff 1.52 is shorter than a bond length based estimate of 1.87. This may lead to errors. (../comm.cpp:685)
  198000          990   0.51665074   0.38044283    613.53548    774.20114    1387.7366    1964.1993 
WARNING: Communication cutoff 1.52 is shorter than a bond length based estimate of 1.87. This may lead to errors. (../comm.cpp:685)
WARNING: Communication cutoff 1.52 is shorter than a bond length based estimate of 1.87. This may lead to errors. (../comm.cpp:685)
WARNING: Communication cutoff 1.52 is shorter than a bond length based estimate of 1.87. This may lead to errors. (../comm.cpp:685)
WARNING: Communication cutoff 1.52 is shorter than a bond length based estimate of 1.87. This may lead to errors. (../comm.cpp:685)
WARNING: Communication cutoff 1.52 is shorter than a bond length based estimate of 1.87. This may lead to errors. (../comm.cpp:685)
  198100        990.5   0.50205962   0.45286955    652.19003    752.33635    1404.5264    1963.7231 
WARNING: Communication cutoff 1.52 is shorter than a bond length based estimate of 1.87. This may lead to errors. (../comm.cpp:685)
WARNING: Communication cutoff 1.52 is shorter than a bond length based estimate of 1.87. This may lead to errors. (../comm.cpp:685)
WARNING: Communication cutoff 1.52 is shorter than a bond length based estimate of 1.87. This may lead to errors. (../comm.cpp:685)
WARNING: Communication cutoff 1.52 is shorter than a bond length based estimate of 1.87. This may lead to errors. (../comm.cpp:685)
WARNING: Communication cutoff 1.52 is shorter than a bond length based estimate of 1.87. This may lead to errors. (../comm.cpp:685)
WARNING: Communication cutoff 1.52 is shorter than a bond length based estimate of 1.87. This may lead to errors. (../comm.cpp:685)
  198200          991   0.51552488   0.46019412    651.89436    772.51404    1424.4084     1963.251 
WARNING: Communication cutoff 1.52 is shorter than a bond length based estimate of 1.87. This may lead to errors. (../comm.cpp:685)
WARNING: Communication cutoff 1.52 is shorter than a bond length based estimate of 1.87. This may lead to errors. (../comm.cpp:685)
WARNING: Communication cutoff 1.52 is shorter than a bond length based estimate of 1.87. This may lead to errors. (../comm.cpp:685)
WARNING: Communication cutoff 1.52 is shorter than a bond length based estimate of 1.87. This may lead to errors. (../comm.cpp:685)
WARNING: Communication cutoff 1.52 is shorter than a bond length based estimate of 1.87. This may lead to errors. (../comm.cpp:685)
  198300        991.5   0.53721966   0.56249786    648.08491    805.02365    1453.1086    1962.7895 
WARNING: Communication cutoff 1.52 is shorter than a bond length based estimate of 1.87. This may lead to errors. (../comm.cpp:685)
WARNING: Communication cutoff 1.52 is shorter than a bond length based estimate of 1.87. This may lead to errors. (../comm.cpp:685)
WARNING: Communication cutoff 1.52 is shorter than a bond length based estimate of 1.87. This may lead to errors. (../comm.cpp:685)
WARNING: Communication cutoff 1.52 is shorter than a bond length based estimate of 1.87. This may lead to errors. (../comm.cpp:685)
WARNING: Communication cutoff 1.52 is shorter than a bond length based estimate of 1.87. This may lead to errors. (../comm.cpp:685)
WARNING: Communication cutoff 1.52 is shorter than a bond length based estimate of 1.87. This may lead to errors. (../comm.cpp:685)
  198400          992   0.49956031   0.39235743    682.29396    748.59112    1430.8851    1962.3358 
WARNING: Communication cutoff 1.52 is shorter than a bond length based estimate of 1.87. This may lead to errors. (../comm.cpp:685)
WARNING: Communication cutoff 1.52 is shorter than a bond length based estimate of 1.87. This may lead to errors. (../comm.cpp:685)
WARNING: Communication cutoff 1.52 is shorter than a bond length based estimate of 1.87. This may lead to errors. (../comm.cpp:685)
WARNING: Communication cutoff 1.52 is shorter than a bond length based estimate of 1.87. This may lead to errors. (../comm.cpp:685)
WARNING: Communication cutoff 1.52 is shorter than a bond length based estimate of 1.87. This may lead to errors. (../comm.cpp:685)
  198500        992.5   0.51582019   0.48888191    634.14879    772.95655    1407.1053    1961.8734 
WARNING: Communication cutoff 1.52 is shorter than a bond length based estimate of 1.87. This may lead to errors. (../comm.cpp:685)
WARNING: Communication cutoff 1.52 is shorter than a bond length based estimate of 1.87. This may lead to errors. (../comm.cpp:685)
WARNING: Communication cutoff 1.52 is shorter than a bond length based estimate of 1.87. This may lead to errors. (../comm.cpp:685)
WARNING: Communication cutoff 1.52 is shorter than a bond length based estimate of 1.87. This may lead to errors. (../comm.cpp:685)
WARNING: Communication cutoff 1.52 is shorter than a bond length based estimate of 1.87. This may lead to errors. (../comm.cpp:685)
WARNING: Communication cutoff 1.52 is shorter than a bond length based estimate of 1.87. This may lead to errors. (../comm.cpp:685)
  198600          993    0.4815367   0.38788898    641.53638    721.58274    1363.1191    1961.3963 
WARNING: Communication cutoff 1.52 is shorter than a bond length based estimate of 1.87. This may lead to errors. (../comm.cpp:685)
WARNING: Communication cutoff 1.52 is shorter than a bond length based estimate of 1.87. This may lead to errors. (../comm.cpp:685)
WARNING: Communication cutoff 1.52 is shorter than a bond length based estimate of 1.87. This may lead to errors. (../comm.cpp:685)
WARNING: Communication cutoff 1.52 is shorter than a bond length based estimate of 1.87. This may lead to errors. (../comm.cpp:685)
WARNING: Communication cutoff 1.52 is shorter than a bond length based estimate of 1.87. This may lead to errors. (../comm.cpp:685)
  198700        993.5    0.5071133   0.55349858    617.95563    759.90928    1377.8649    1960.9174 
WARNING: Communication cutoff 1.52 is shorter than a bond length based estimate of 1.87. This may lead to errors. (../comm.cpp:685)
WARNING: Communication cutoff 1.52 is shorter than a bond length based estimate of 1.87. This may lead to errors. (../comm.cpp:685)
WARNING: Communication cutoff 1.52 is shorter than a bond length based estimate of 1.87. This may lead to errors. (../comm.cpp:685)
WARNING: Communication cutoff 1.52 is shorter than a bond length based estimate of 1.87. This may lead to errors. (../comm.cpp:685)
WARNING: Communication cutoff 1.52 is shorter than a bond length based estimate of 1.87. This may lead to errors. (../comm.cpp:685)
  198800          994   0.50656336   0.37760966    607.82698     759.0852    1366.9122    1960.4502 
WARNING: Communication cutoff 1.52 is shorter than a bond length based estimate of 1.87. This may lead to errors. (../comm.cpp:685)
WARNING: Communication cutoff 1.52 is shorter than a bond length based estimate of 1.87. This may lead to errors. (../comm.cpp:685)
WARNING: Communication cutoff 1.52 is shorter than a bond length based estimate of 1.87. This may lead to errors. (../comm.cpp:685)
WARNING: Communication cutoff 1.52 is shorter than a bond length based estimate of 1.87. This may lead to errors. (../comm.cpp:685)
WARNING: Communication cutoff 1.52 is shorter than a bond length based estimate of 1.87. This may lead to errors. (../comm.cpp:685)
WARNING: Communication cutoff 1.52 is shorter than a bond length based estimate of 1.87. This may lead to errors. (../comm.cpp:685)
  198900        994.5   0.47255339   0.25946241      611.808    708.12126    1319.9293    1959.9922 
WARNING: Communication cutoff 1.52 is shorter than a bond length based estimate of 1.87. This may lead to errors. (../comm.cpp:685)
WARNING: Communication cutoff 1.52 is shorter than a bond length based estimate of 1.87. This may lead to errors. (../comm.cpp:685)
WARNING: Communication cutoff 1.52 is shorter than a bond length based estimate of 1.87. This may lead to errors. (../comm.cpp:685)
WARNING: Communication cutoff 1.52 is shorter than a bond length based estimate of 1.87. This may lead to errors. (../comm.cpp:685)
WARNING: Communication cutoff 1.52 is shorter than a bond length based estimate of 1.87. This may lead to errors. (../comm.cpp:685)
  199000          995    0.4899864   0.54293208    617.83273    734.24462    1352.0773    1959.5354 
WARNING: Communication cutoff 1.52 is shorter than a bond length based estimate of 1.87. This may lead to errors. (../comm.cpp:685)
WARNING: Communication cutoff 1.52 is shorter than a bond length based estimate of 1.87. This may lead to errors. (../comm.cpp:685)
WARNING: Communication cutoff 1.52 is shorter than a bond length based estimate of 1.87. This may lead to errors. (../comm.cpp:685)
WARNING: Communication cutoff 1.52 is shorter than a bond length based estimate of 1.87. This may lead to errors. (../comm.cpp:685)
WARNING: Communication cutoff 1.52 is shorter than a bond length based estimate of 1.87. This may lead to errors. (../comm.cpp:685)
  199100        995.5   0.47671495   0.31187567    595.89604    714.35735    1310.2534    1959.0943 
WARNING: Communication cutoff 1.52 is shorter than a bond length based estimate of 1.87. This may lead to errors. (../comm.cpp:685)
WARNING: Communication cutoff 1.52 is shorter than a bond length based estimate of 1.87. This may lead to errors. (../comm.cpp:685)
WARNING: Communication cutoff 1.52 is shorter than a bond length based estimate of 1.87. This may lead to errors. (../comm.cpp:685)
WARNING: Communication cutoff 1.52 is shorter than a bond length based estimate of 1.87. This may lead to errors. (../comm.cpp:685)
WARNING: Communication cutoff 1.52 is shorter than a bond length based estimate of 1.87. This may lead to errors. (../comm.cpp:685)
  199200          996   0.51785523   0.38919708     559.6696    776.00606    1335.6757    1958.6503 
WARNING: Communication cutoff 1.52 is shorter than a bond length based estimate of 1.87. This may lead to errors. (../comm.cpp:685)
WARNING: Communication cutoff 1.52 is shorter than a bond length based estimate of 1.87. This may lead to errors. (../comm.cpp:685)
WARNING: Communication cutoff 1.52 is shorter than a bond length based estimate of 1.87. This may lead to errors. (../comm.cpp:685)
WARNING: Communication cutoff 1.52 is shorter than a bond length based estimate of 1.87. This may lead to errors. (../comm.cpp:685)
WARNING: Communication cutoff 1.52 is shorter than a bond length based estimate of 1.87. This may lead to errors. (../comm.cpp:685)
WARNING: Communication cutoff 1.52 is shorter than a bond length based estimate of 1.87. This may lead to errors. (../comm.cpp:685)
  199300        996.5   0.49731818   0.53141278    619.67869    745.23129      1364.91    1958.2026 
WARNING: Communication cutoff 1.52 is shorter than a bond length based estimate of 1.87. This may lead to errors. (../comm.cpp:685)
WARNING: Communication cutoff 1.52 is shorter than a bond length based estimate of 1.87. This may lead to errors. (../comm.cpp:685)
WARNING: Communication cutoff 1.52 is shorter than a bond length based estimate of 1.87. This may lead to errors. (../comm.cpp:685)
WARNING: Communication cutoff 1.52 is shorter than a bond length based estimate of 1.87. This may lead to errors. (../comm.cpp:685)
WARNING: Communication cutoff 1.52 is shorter than a bond length based estimate of 1.87. This may lead to errors. (../comm.cpp:685)
WARNING: Communication cutoff 1.52 is shorter than a bond length based estimate of 1.87. This may lead to errors. (../comm.cpp:685)
  199400          997   0.48122097   0.36756993    644.34472    721.10963    1365.4543    1957.7577 
WARNING: Communication cutoff 1.52 is shorter than a bond length based estimate of 1.87. This may lead to errors. (../comm.cpp:685)
WARNING: Communication cutoff 1.52 is shorter than a bond length based estimate of 1.87. This may lead to errors. (../comm.cpp:685)
WARNING: Communication cutoff 1.52 is shorter than a bond length based estimate of 1.87. This may lead to errors. (../comm.cpp:685)
WARNING: Communication cutoff 1.52 is shorter than a bond length based estimate of 1.87. This may lead to errors. (../comm.cpp:685)
WARNING: Communication cutoff 1.52 is shorter than a bond length based estimate of 1.87. This may lead to errors. (../comm.cpp:685)
WARNING: Communication cutoff 1.52 is shorter than a bond length based estimate of 1.87. This may lead to errors. (../comm.cpp:685)
  199500        997.5   0.50198694   0.41407817    609.49295    752.22743    1361.7204    1957.3135 
WARNING: Communication cutoff 1.52 is shorter than a bond length based estimate of 1.87. This may lead to errors. (../comm.cpp:685)
WARNING: Communication cutoff 1.52 is shorter than a bond length based estimate of 1.87. This may lead to errors. (../comm.cpp:685)
WARNING: Communication cutoff 1.52 is shorter than a bond length based estimate of 1.87. This may lead to errors. (../comm.cpp:685)
WARNING: Communication cutoff 1.52 is shorter than a bond length based estimate of 1.87. This may lead to errors. (../comm.cpp:685)
WARNING: Communication cutoff 1.52 is shorter than a bond length based estimate of 1.87. This may lead to errors. (../comm.cpp:685)
  199600          998   0.50403952   0.37875669    627.57718    755.30322    1382.8804    1956.8699 
WARNING: Communication cutoff 1.52 is shorter than a bond length based estimate of 1.87. This may lead to errors. (../comm.cpp:685)
WARNING: Communication cutoff 1.52 is shorter than a bond length based estimate of 1.87. This may lead to errors. (../comm.cpp:685)
WARNING: Communication cutoff 1.52 is shorter than a bond length based estimate of 1.87. This may lead to errors. (../comm.cpp:685)
WARNING: Communication cutoff 1.52 is shorter than a bond length based estimate of 1.87. This may lead to errors. (../comm.cpp:685)
WARNING: Communication cutoff 1.52 is shorter than a bond length based estimate of 1.87. This may lead to errors. (../comm.cpp:685)
WARNING: Communication cutoff 1.52 is shorter than a bond length based estimate of 1.87. This may lead to errors. (../comm.cpp:685)
  199700        998.5   0.52691963   0.36838077    627.31058    789.58906    1416.8996    1956.4385 
WARNING: Communication cutoff 1.52 is shorter than a bond length based estimate of 1.87. This may lead to errors. (../comm.cpp:685)
WARNING: Communication cutoff 1.52 is shorter than a bond length based estimate of 1.87. This may lead to errors. (../comm.cpp:685)
WARNING: Communication cutoff 1.52 is shorter than a bond length based estimate of 1.87. This may lead to errors. (../comm.cpp:685)
WARNING: Communication cutoff 1.52 is shorter than a bond length based estimate of 1.87. This may lead to errors. (../comm.cpp:685)
WARNING: Communication cutoff 1.52 is shorter than a bond length based estimate of 1.87. This may lead to errors. (../comm.cpp:685)
  199800          999    0.5019614   0.52074195    631.11999    752.18917    1383.3092     1956.005 
WARNING: Communication cutoff 1.52 is shorter than a bond length based estimate of 1.87. This may lead to errors. (../comm.cpp:685)
WARNING: Communication cutoff 1.52 is shorter than a bond length based estimate of 1.87. This may lead to errors. (../comm.cpp:685)
WARNING: Communication cutoff 1.52 is shorter than a bond length based estimate of 1.87. This may lead to errors. (../comm.cpp:685)
WARNING: Communication cutoff 1.52 is shorter than a bond length based estimate of 1.87. This may lead to errors. (../comm.cpp:685)
WARNING: Communication cutoff 1.52 is shorter than a bond length based estimate of 1.87. This may lead to errors. (../comm.cpp:685)
WARNING: Communication cutoff 1.52 is shorter than a bond length based estimate of 1.87. This may lead to errors. (../comm.cpp:685)
  199900        999.5   0.51841536   0.33822298    607.88918    776.84542    1384.7346     1955.573 
WARNING: Communication cutoff 1.52 is shorter than a bond length based estimate of 1.87. This may lead to errors. (../comm.cpp:685)
WARNING: Communication cutoff 1.52 is shorter than a bond length based estimate of 1.87. This may lead to errors. (../comm.cpp:685)
WARNING: Communication cutoff 1.52 is shorter than a bond length based estimate of 1.87. This may lead to errors. (../comm.cpp:685)
WARNING: Communication cutoff 1.52 is shorter than a bond length based estimate of 1.87. This may lead to errors. (../comm.cpp:685)
WARNING: Communication cutoff 1.52 is shorter than a bond length based estimate of 1.87. This may lead to errors. (../comm.cpp:685)
  200000         1000   0.49516065   0.41505787    615.47033    741.99823    1357.4686    1955.1399 
Loop time of 33.0385 on 1 procs for 200000 steps with 1000 atoms

Performance: 2615131.619 tau/day, 6053.545 timesteps/s
99.4% CPU use with 1 MPI tasks x no OpenMP threads

MPI task timing breakdown:
Section |  min time  |  avg time  |  max time  |%varavg| %total
---------------------------------------------------------------
Pair    | 2.6186     | 2.6186     | 2.6186     |   0.0 |  7.93
Bond    | 14.581     | 14.581     | 14.581     |   0.0 | 44.13
Neigh   | 3.2724     | 3.2724     | 3.2724     |   0.0 |  9.90
Comm    | 1.3712     | 1.3712     | 1.3712     |   0.0 |  4.15
Output  | 0.31867    | 0.31867    | 0.31867    |   0.0 |  0.96
Modify  | 10.228     | 10.228     | 10.228     |   0.0 | 30.96
Other   |            | 0.6485     |            |       |  1.96

Nlocal:    1000 ave 1000 max 1000 min
Histogram: 1 0 0 0 0 0 0 0 0 0
Nghost:    922 ave 922 max 922 min
Histogram: 1 0 0 0 0 0 0 0 0 0
Neighs:    2379 ave 2379 max 2379 min
Histogram: 1 0 0 0 0 0 0 0 0 0

Total # of neighbors = 2379
Ave neighs/atom = 2.379
Ave special neighs/atom = 4.8
Neighbor list builds = 11262
Dangerous builds = 0

# SHELL
shell cp output.dump        output_T_${T}_N_${N}_box_${box}_run_${run_tau}_tau_num_${num}.dump
shell cp output.dump        output_T_0.5_N_${N}_box_${box}_run_${run_tau}_tau_num_${num}.dump
shell cp output.dump        output_T_0.5_N_100_box_${box}_run_${run_tau}_tau_num_${num}.dump
shell cp output.dump        output_T_0.5_N_100_box_50_run_${run_tau}_tau_num_${num}.dump
shell cp output.dump        output_T_0.5_N_100_box_50_run_1000_tau_num_${num}.dump
shell cp output.dump        output_T_0.5_N_100_box_50_run_1000_tau_num_1.dump
shell touch T_${T}.done
shell touch T_0.5.done

#clear
#next T
#jump in.run

Total wall time: 0:00:33
