ITEM: TIMESTEP
0
ITEM: NUMBER OF ATOMS
10
ITEM: BOX BOUNDS pp pp pp
-5.0000000000000000e+00 5.0000000000000000e+00
-5.0000000000000000e+00 5.0000000000000000e+00
-5.0000000000000000e+00 5.0000000000000000e+00
ITEM: ATOMS id mol type x y z vx vy vz 
1 1 1 1.20769 -2.54978 -4.287 0 0 0 
2 1 2 1.47922 -2.51526 -3.346 0 0 0 
3 1 3 1.75075 -2.48075 -2.405 0 0 0 
4 1 4 2.02227 -2.44624 -1.464 0 0 0 
5 1 5 2.2938 -2.41172 -0.522995 0 0 0 
6 1 6 2.56532 -2.37721 0.418006 0 0 0 
7 1 7 2.83685 -2.34269 1.35901 0 0 0 
8 1 8 3.10837 -2.30818 2.30001 0 0 0 
9 1 9 3.3799 -2.27367 3.24101 0 0 0 
10 1 10 3.65142 -2.23915 4.18201 0 0 0 
ITEM: TIMESTEP
1000
ITEM: NUMBER OF ATOMS
10
ITEM: BOX BOUNDS pp pp pp
-4.7325599792333426e+00 4.7325599792333426e+00
-4.7325599792333426e+00 4.7325599792333426e+00
-4.7325599792333426e+00 4.7325599792333426e+00
ITEM: ATOMS id mol type x y z vx vy vz 
1 1 1 1.83114 -2.69951 -4.06102 -0.365707 0.543561 0.359847 
2 1 2 1.9174 -2.66285 -3.06805 -0.0562773 0.519608 0.120719 
3 1 3 2.00469 -2.61387 -2.11762 0.251918 -0.035741 -0.406439 
4 1 4 2.06651 -2.55885 -1.14442 -1.07013 -0.212429 0.344537 
5 1 5 2.10969 -2.42933 -0.143067 1.08519 0.290793 0.822605 
6 1 6 2.91152 -2.76373 0.140149 0.79972 -1.83608 0.288649 
7 1 7 2.90436 -2.49112 1.08381 0.109397 0.754746 0.0691261 
8 1 8 2.88251 -2.22449 1.99507 -0.778337 -0.770564 0.452497 
9 1 9 2.8453 -1.91118 2.92625 -0.673401 0.514418 0.246793 
10 1 10 2.82249 -1.58973 3.86395 0.882857 0.984905 -1.39101 
ITEM: TIMESTEP
2000
ITEM: NUMBER OF ATOMS
10
ITEM: BOX BOUNDS pp pp pp
-4.1582303094464574e+00 4.1582303094464574e+00
-4.1582303094464574e+00 4.1582303094464574e+00
-4.1582303094464574e+00 4.1582303094464574e+00
ITEM: ATOMS id mol type x y z vx vy vz 
1 1 1 1.84324 -1.23025 -2.83435 1.03999 -0.63743 0.212574 
2 1 2 1.66519 -1.82771 -2.04201 1.03775 -0.19732 -0.337562 
3 1 3 1.51577 -2.43973 -1.26918 -1.75234 0.599322 -0.726579 
4 1 4 1.37721 -3.04333 -0.544219 -0.590757 0.732677 -0.707957 
5 1 5 1.23372 -3.64759 0.201086 -1.0791 0.621744 1.55498 
6 1 6 2.27888 -3.58538 0.0624898 -0.655579 -0.0835287 1.08974 
7 1 7 2.79688 -2.95976 0.62167 -0.919892 -1.04939 0.803583 
8 1 8 3.34107 -2.35169 1.18649 -0.247428 0.118853 0.119822 
9 1 9 3.86291 -1.73782 1.73781 -0.0191771 0.417063 -0.158137 
10 1 10 -3.93573 -1.12141 2.35527 0.848441 -0.354161 -0.242427 
ITEM: TIMESTEP
3000
ITEM: NUMBER OF ATOMS
10
ITEM: BOX BOUNDS pp pp pp
-3.6982813930831968e+00 3.6982813930831968e+00
-3.6982813930831968e+00 3.6982813930831968e+00
-3.6982813930831968e+00 3.6982813930831968e+00
ITEM: ATOMS id mol type x y z vx vy vz 
1 1 1 1.76273 -1.73816 -3.62486 -0.0306307 0.58089 -1.21793 
2 1 2 1.6118 -1.91947 -2.69857 -0.527213 -0.638598 1.04599 
3 1 3 1.46392 -2.1304 -1.73032 -0.572561 -0.0349115 -1.06615 
4 1 4 1.30599 -2.29804 -0.781198 -0.55263 0.896699 0.0785932 
5 1 5 1.17487 -2.46327 0.150287 -0.74362 0.0835697 0.235938 
6 1 6 1.58959 -2.24238 1.00179 -0.324627 0.701307 -0.926317 
7 1 7 2.49795 -2.45948 1.31327 -0.432703 -1.48428 -0.26896 
8 1 8 3.4019 -2.67893 1.61123 0.0801238 0.458497 -0.0382216 
9 1 9 -3.0945 -2.8859 1.94426 0.531547 0.0340899 -0.314115 
10 1 10 -2.21178 -3.12862 2.28917 -0.418231 0.552163 0.184856 
ITEM: TIMESTEP
4000
ITEM: NUMBER OF ATOMS
10
ITEM: BOX BOUNDS pp pp pp
-3.3842654539139905e+00 3.3842654539139905e+00
-3.3842654539139905e+00 3.3842654539139905e+00
-3.3842654539139905e+00 3.3842654539139905e+00
ITEM: ATOMS id mol type x y z vx vy vz 
1 1 1 0.489666 -2.95658 -3.28185 0.493038 0.097509 -0.7881 
2 1 2 0.675426 -2.87142 -2.32659 -0.311296 0.223015 -0.242314 
3 1 3 0.881292 -2.76082 -1.35212 -1.01812 0.136446 0.115613 
4 1 4 1.07614 -2.6534 -0.439536 0.357031 -0.0273299 -0.644217 
5 1 5 1.28998 -2.5323 0.499214 -0.545158 -0.763508 -0.0580326 
6 1 6 2.08665 -1.98858 0.719569 -1.18124 2.13172 0.869671 
9 1 9 -1.86868 -2.04228 1.55769 0.171703 1.5766 0.52993 
7 1 7 3.06297 -2.02558 1.00444 -0.09479 0.983372 0.404607 
8 1 8 -2.77784 -2.03123 1.27131 -0.184334 -1.43418 0.432456 
10 1 10 -0.925598 -2.08246 1.82293 -0.183388 -0.188346 -0.165241 
ITEM: TIMESTEP
5000
ITEM: NUMBER OF ATOMS
10
ITEM: BOX BOUNDS pp pp pp
-3.1282787433297736e+00 3.1282787433297736e+00
-3.1282787433297736e+00 3.1282787433297736e+00
-3.1282787433297736e+00 3.1282787433297736e+00
ITEM: ATOMS id mol type x y z vx vy vz 
1 1 1 0.606416 2.69844 -3.1074 -0.0253486 -0.275399 0.905219 
2 1 2 0.828427 2.96351 -2.21117 -0.223546 0.537251 -0.167263 
3 1 3 1.07129 -3.02393 -1.29259 -0.753361 -0.449579 1.04867 
4 1 4 1.31499 -2.73965 -0.381539 -0.290302 -0.237592 -0.0882767 
5 1 5 1.54919 -2.43793 0.593518 1.101 -0.212656 -0.145441 
6 1 6 1.85037 -1.64249 0.873881 -0.307135 -0.509874 0.862643 
8 1 8 -2.44237 -1.76464 1.16613 -1.02597 0.106849 -0.578173 
9 1 9 -1.5274 -1.84927 1.35247 -1.73017 -0.265628 -0.976752 
7 1 7 2.81717 -1.71332 1.00813 -1.70855 -0.294442 -0.972646 
10 1 10 -0.542165 -1.92225 1.47363 -0.338633 -0.186976 0.892098 
ITEM: TIMESTEP
6000
ITEM: NUMBER OF ATOMS
10
ITEM: BOX BOUNDS pp pp pp
-2.9142051804827500e+00 2.9142051804827500e+00
-2.9142051804827500e+00 2.9142051804827500e+00
-2.9142051804827500e+00 2.9142051804827500e+00
ITEM: ATOMS id mol type x y z vx vy vz 
1 1 1 -0.786159 2.11533 -1.04312 0.215415 -0.326506 0.402231 
2 1 2 0.0324304 2.66074 -0.951923 1.20689 0.756253 1.94994 
3 1 3 0.844656 -2.63257 -0.870096 -0.269521 -0.490289 -0.0657222 
4 1 4 1.70056 -2.06908 -0.827362 0.990342 0.0839879 0.469801 
5 1 5 2.4952 -1.5219 -0.783125 -0.154468 0.161978 0.278075 
8 1 8 -1.81582 -2.14675 0.76241 0.779385 -0.199597 0.287071 
9 1 9 -1.15269 -1.99323 1.48057 0.487162 -0.0391722 -0.39865 
10 1 10 -0.475707 -1.84623 2.2394 0.447795 0.881238 -0.911382 
6 1 6 2.6378 -2.52346 -0.617538 -0.741218 0.126395 -0.604992 
7 1 7 -2.49832 -2.33069 0.0858344 2.68411 0.114117 -0.0401644 
ITEM: TIMESTEP
7000
ITEM: NUMBER OF ATOMS
10
ITEM: BOX BOUNDS pp pp pp
-2.7417984201905830e+00 2.7417984201905830e+00
-2.7417984201905830e+00 2.7417984201905830e+00
-2.7417984201905830e+00 2.7417984201905830e+00
ITEM: ATOMS id mol type x y z vx vy vz 
3 1 3 0.423121 -2.69867 -1.01399 0.10917 0.355221 -0.211864 
4 1 4 1.3341 -2.35775 -0.832063 -0.561507 0.251716 0.0943835 
6 1 6 -2.65823 -1.43288 -0.0390276 0.499006 0.00811553 0.745645 
5 1 5 2.2301 -2.027 -0.657846 -0.642598 -0.400052 0.868879 
1 1 1 -1.38514 2.14632 -1.41034 -0.235192 -0.773987 -0.32642 
2 1 2 -0.480842 2.45859 -1.19627 -0.0673427 -0.344636 0.336805 
7 1 7 -1.85349 -1.75446 0.447256 -0.633273 -0.108483 0.879563 
8 1 8 -1.04772 -2.07938 0.932101 1.18965 1.52081 -0.732013 
9 1 9 -0.254514 -2.43003 1.38633 0.821513 0.179426 -0.484446 
10 1 10 0.570215 -2.80219 1.8589 0.133958 -1.78867 0.405838 
ITEM: TIMESTEP
8000
ITEM: NUMBER OF ATOMS
10
ITEM: BOX BOUNDS pp pp pp
-2.6031676261280774e+00 2.6031676261280774e+00
-2.6031676261280774e+00 2.6031676261280774e+00
-2.6031676261280774e+00 2.6031676261280774e+00
ITEM: ATOMS id mol type x y z vx vy vz 
1 1 1 -0.602417 1.66436 -2.0838 0.349488 0.431764 -0.478877 
2 1 2 0.166896 2.17539 -1.75434 0.187866 -0.380537 -0.339484 
3 1 3 0.925404 -2.5391 -1.3978 -1.11689 0.360573 -0.549434 
4 1 4 1.67177 -2.03146 -1.02775 0.895704 0.155121 0.0892865 
5 1 5 2.44933 -1.52015 -0.66517 0.471128 -0.857178 -0.025629 
6 1 6 2.40643 -1.48949 0.31466 -0.39641 -1.00232 -0.329968 
8 1 8 -1.24955 -2.25383 1.3004 -0.574829 -1.03927 -0.339187 
7 1 7 -2.03934 -1.86395 0.802558 0.103768 0.0974558 -0.368083 
9 1 9 -0.500353 2.57125 1.74853 -1.00012 -0.316667 1.3642 
10 1 10 0.242092 2.16767 2.23778 0.841517 -0.120269 0.27692 
ITEM: TIMESTEP
9000
ITEM: NUMBER OF ATOMS
10
ITEM: BOX BOUNDS pp pp pp
-2.4897024150829199e+00 2.4897024150829199e+00
-2.4897024150829199e+00 2.4897024150829199e+00
-2.4897024150829199e+00 2.4897024150829199e+00
ITEM: ATOMS id mol type x y z vx vy vz 
1 1 1 -0.457654 0.614767 -0.984644 -0.219242 -1.01861 -0.75277 
2 1 2 0.3164 1.1742 -0.850973 -0.160427 -0.275195 -0.395119 
3 1 3 1.0992 1.73951 -0.727198 -0.937545 -0.252304 -0.884428 
4 1 4 1.84772 2.29589 -0.635378 0.759281 0.893688 -0.594684 
5 1 5 -2.35766 -2.12413 -0.536836 0.225616 0.191469 0.699447 
7 1 7 -2.03481 -1.39214 0.188711 1.72342 0.504848 1.24235 
6 1 6 2.0811 -1.25975 -0.305839 0.0212665 -1.72457 -0.0960875 
8 1 8 -1.19001 -1.54605 0.648616 -1.14847 -0.535856 -1.11657 
9 1 9 -0.392304 -1.68357 1.09934 1.25397 -0.268824 0.550241 
10 1 10 0.486588 -1.84576 1.57925 -0.240494 0.775944 0.307302 
ITEM: TIMESTEP
10000
ITEM: NUMBER OF ATOMS
10
ITEM: BOX BOUNDS pp pp pp
-2.3947129450428757e+00 2.3947129450428757e+00
-2.3947129450428757e+00 2.3947129450428757e+00
-2.3947129450428757e+00 2.3947129450428757e+00
ITEM: ATOMS id mol type x y z vx vy vz 
1 1 1 1.48876 0.889155 1.34826 0.955012 -0.316023 -0.0771325 
2 1 2 1.60471 1.3277 2.18477 -0.169129 -0.126022 -0.127123 
5 1 5 1.97781 -2.15507 0.0223245 0.188566 1.2817 -0.420351 
6 1 6 2.16296 -1.13607 0.0226628 -0.601937 -0.0959057 -0.0291113 
3 1 3 1.71859 1.76896 -1.74349 0.210283 1.4386 -0.773037 
4 1 4 1.86 2.2163 -0.867779 -0.315048 -1.11397 0.698345 
7 1 7 -2.17633 -1.46444 0.815348 0.636474 -0.101093 -0.244537 
8 1 8 -1.6752 -1.77893 1.62789 -0.382647 1.02821 -1.37461 
9 1 9 -1.17607 -2.09101 2.4359 -0.553247 -0.53966 0.420685 
10 1 10 -0.647325 -2.36355 -1.5814 -0.309488 -0.295899 0.855937 
ITEM: TIMESTEP
11000
ITEM: NUMBER OF ATOMS
10
ITEM: BOX BOUNDS pp pp pp
-2.3124178052300177e+00 2.3124178052300177e+00
-2.3124178052300177e+00 2.3124178052300177e+00
-2.3124178052300177e+00 2.3124178052300177e+00
ITEM: ATOMS id mol type x y z vx vy vz 
9 1 9 -0.816998 -2.09399 2.26082 0.143731 -0.771524 -0.782661 
3 1 3 1.86806 1.81169 -1.89012 0.664872 -0.709951 0.0305166 
10 1 10 -0.020684 -2.27422 -1.83306 1.0383 -0.0754803 -0.605431 
4 1 4 1.58497 2.27299 -1.06552 0.146882 -0.328053 0.372001 
5 1 5 1.3363 -1.92366 -0.232905 -0.130045 -0.159423 0.0377977 
6 1 6 1.31675 -1.697 0.7917 -0.815013 -0.2866 0.839222 
7 1 7 2.15305 -1.80757 1.27251 -0.200013 0.515872 0.370059 
1 1 1 -2.15619 0.873434 1.13012 0.132978 -0.216824 -0.521131 
8 1 8 -1.63372 -1.94498 1.75305 0.818199 0.577151 0.488683 
2 1 2 2.16472 1.33799 1.91328 0.22718 -0.379307 0.0335362 
ITEM: TIMESTEP
12000
ITEM: NUMBER OF ATOMS
10
ITEM: BOX BOUNDS pp pp pp
-2.2399628046989943e+00 2.2399628046989943e+00
-2.2399628046989943e+00 2.2399628046989943e+00
-2.2399628046989943e+00 2.2399628046989943e+00
ITEM: ATOMS id mol type x y z vx vy vz 
10 1 10 -0.221491 0.990742 -1.75831 -0.480168 0.386466 0.40357 
3 1 3 1.8704 2.05699 -1.79333 0.779202 -0.308514 -0.824696 
4 1 4 1.68412 -1.84576 -1.04713 -1.35755 0.253478 -0.636826 
5 1 5 1.4671 -1.28041 -0.343309 -0.115701 0.667273 -0.977228 
6 1 6 1.74381 -1.23475 0.649574 0.55682 0.872357 0.159013 
7 1 7 -2.10768 -1.79865 1.17847 1.44347 1.10329 1.05854 
1 1 1 2.18842 0.89361 1.1474 0.430142 0.849692 -0.147183 
8 1 8 -1.45946 2.11616 1.73791 -0.0930514 -0.485833 0.994849 
9 1 9 -0.827521 1.5481 2.24482 -1.00366 -0.799442 0.0138376 
2 1 2 2.03819 1.48885 1.93887 0.081734 0.286391 -0.144867 
ITEM: TIMESTEP
13000
ITEM: NUMBER OF ATOMS
10
ITEM: BOX BOUNDS pp pp pp
-2.1742863079791896e+00 2.1742863079791896e+00
-2.1742863079791896e+00 2.1742863079791896e+00
-2.1742863079791896e+00 2.1742863079791896e+00
ITEM: ATOMS id mol type x y z vx vy vz 
10 1 10 0.409328 0.591898 -1.41986 -0.319091 0.46823 0.515863 
9 1 9 -0.195635 1.0494 -1.99872 0.771788 -0.364727 0.630591 
3 1 3 1.28727 -1.96872 -1.80192 -0.515914 -0.10071 -0.0566582 
4 1 4 1.72724 -1.54701 -0.992606 -0.865433 0.671159 0.0531638 
5 1 5 2.15174 -1.14977 -0.190847 -0.343703 -1.36985 -1.4641 
7 1 7 -1.3935 1.98797 1.07797 1.26634 -0.64209 0.249817 
6 1 6 -1.99068 -1.85708 0.459479 -0.572906 -0.4497 0.132351 
1 1 1 0.465198 1.55235 0.889595 0.666588 0.305266 -0.927311 
8 1 8 -0.789562 1.52157 1.71046 0.226287 -0.785078 0.298728 
2 1 2 0.881337 1.96617 1.74151 -0.927383 0.537502 0.0876346 
ITEM: TIMESTEP
14000
ITEM: NUMBER OF ATOMS
10
ITEM: BOX BOUNDS pp pp pp
-2.1138637971805267e+00 2.1138637971805267e+00
-2.1138637971805267e+00 2.1138637971805267e+00
-2.1138637971805267e+00 2.1138637971805267e+00
ITEM: ATOMS id mol type x y z vx vy vz 
3 1 3 1.1747 1.91208 -1.98162 0.393425 0.54407 -0.129987 
10 1 10 0.617673 1.43476 -0.775898 0.417098 0.282934 0.65928 
9 1 9 0.0455328 1.60764 -1.58005 -1.25596 1.91891 -0.546349 
4 1 4 1.43586 -2.08182 -1.08254 1.1892 1.1067 0.292654 
5 1 5 1.69129 -1.85405 -0.116897 -1.56382 0.603711 0.46654 
6 1 6 -1.69567 2.09687 0.331791 -0.35002 -0.0673422 -0.345269 
7 1 7 -1.11935 1.92545 1.10382 -0.0126502 -0.95609 -0.338062 
1 1 1 0.640734 1.40931 0.395432 -0.259361 -0.743411 0.335116 
8 1 8 -0.522871 1.76321 1.87005 0.0617427 -0.556259 0.414215 
2 1 2 0.889056 1.66371 1.31097 -0.865621 -0.943069 0.301406 
ITEM: TIMESTEP
15000
ITEM: NUMBER OF ATOMS
10
ITEM: BOX BOUNDS pp pp pp
-2.0576036337378607e+00 2.0576036337378607e+00
-2.0576036337378607e+00 2.0576036337378607e+00
-2.0576036337378607e+00 2.0576036337378607e+00
ITEM: ATOMS id mol type x y z vx vy vz 
9 1 9 -0.875783 1.07022 -1.91277 -0.195492 -0.415923 1.29967 
3 1 3 1.60629 1.91842 -1.41826 -0.0559332 -0.190862 0.179918 
4 1 4 -1.99728 -1.5928 -0.846297 0.150994 0.544237 -0.291018 
10 1 10 -0.877625 0.605133 -1.08496 0.700478 -1.03803 0.0554895 
5 1 5 -1.46365 -0.983456 -0.270098 -0.258554 -1.28662 0.845843 
6 1 6 -0.845888 -1.71362 -0.393221 1.61808 0.0047995 -0.968863 
7 1 7 -0.84186 1.98782 0.447491 1.03132 0.916542 0.0984776 
1 1 1 0.55896 0.720517 1.54214 1.27627 0.521912 -0.169354 
8 1 8 -0.863935 1.54108 1.30933 -0.243568 -0.386123 0.238304 
2 1 2 1.08992 1.30848 -2.01351 0.166728 0.326001 0.133671 
ITEM: TIMESTEP
16000
ITEM: NUMBER OF ATOMS
10
ITEM: BOX BOUNDS pp pp pp
-2.0066641395741400e+00 2.0066641395741400e+00
-2.0066641395741400e+00 2.0066641395741400e+00
-2.0066641395741400e+00 2.0066641395741400e+00
ITEM: ATOMS id mol type x y z vx vy vz 
9 1 9 -1.73923 0.534134 -1.81505 -0.0434941 -0.118551 0.704883 
2 1 2 1.71733 1.66917 1.46316 0.236756 -0.401886 -0.878436 
3 1 3 -1.84808 1.99022 -1.78263 -0.494005 -0.1208 -1.25931 
4 1 4 -1.3528 -1.67859 -0.987114 0.854899 0.957718 0.676999 
6 1 6 -0.569094 -1.31482 0.567181 0.00685046 -0.278588 0.66038 
10 1 10 1.88894 -0.222123 -1.26163 -0.405984 0.41599 -0.9332 
5 1 5 -0.875902 -1.34958 -0.210139 0.334424 0.356206 -0.823016 
7 1 7 -0.942356 1.95467 1.1183 -0.737508 0.184436 0.150868 
1 1 1 1.2585 1.32826 0.712247 0.308793 0.497327 -0.629996 
8 1 8 -1.33501 1.23731 1.67072 -0.370947 0.0238651 -0.760198 
ITEM: TIMESTEP
17000
ITEM: NUMBER OF ATOMS
10
ITEM: BOX BOUNDS pp pp pp
-1.9601005384913046e+00 1.9601005384913046e+00
-1.9601005384913046e+00 1.9601005384913046e+00
-1.9601005384913046e+00 1.9601005384913046e+00
ITEM: ATOMS id mol type x y z vx vy vz 
3 1 3 -1.3413 -1.19561 1.83923 0.558509 -0.122232 2.35541 
10 1 10 1.5858 -0.68988 -0.409136 0.811137 0.596366 0.375724 
9 1 9 1.9411 -0.194741 -1.18353 0.804967 0.100918 -0.215344 
4 1 4 -1.23442 -1.80477 -1.28748 1.2422 0.629939 -0.0245199 
5 1 5 -1.15838 1.51035 -0.509051 -1.62845 0.140675 -0.355689 
6 1 6 -0.942518 1.38072 0.463652 0.15636 1.06245 0.889941 
1 1 1 -1.55073 0.00815561 0.245239 1.14815 -1.75129 -0.65013 
8 1 8 -1.63084 0.321156 -1.95035 1.20097 0.281594 -0.242317 
7 1 7 -1.27254 0.851941 1.22016 -0.662172 -0.349529 -1.05936 
2 1 2 -1.46219 -0.610778 1.04631 0.388002 0.35907 -0.125363 
ITEM: TIMESTEP
18000
ITEM: NUMBER OF ATOMS
10
ITEM: BOX BOUNDS pp pp pp
-1.9162355205523904e+00 1.9162355205523904e+00
-1.9162355205523904e+00 1.9162355205523904e+00
-1.9162355205523904e+00 1.9162355205523904e+00
ITEM: ATOMS id mol type x y z vx vy vz 
4 1 4 -1.56805 -1.82032 -1.47833 -0.0468801 -0.233391 0.779975 
9 1 9 -1.7742 -0.32852 -1.3437 0.426884 -0.34227 -0.284176 
8 1 8 -1.88899 0.126011 1.61603 0.884409 0.147175 0.372306 
10 1 10 -1.64412 -0.760419 -0.474631 -0.794515 -0.601363 -0.692376 
5 1 5 1.62463 1.27664 -1.2552 0.234743 -0.358624 1.0291 
1 1 1 0.349817 0.348288 1.62847 -0.0549597 1.58323 0.453469 
2 1 2 -0.275606 -0.365628 1.89073 1.12743 0.608307 -0.945131 
6 1 6 1.72322 1.04625 -0.131034 -0.800811 0.719294 -1.45637 
3 1 3 -0.903272 -1.06717 -1.69884 -0.674789 0.169225 -0.47706 
7 1 7 1.82488 0.595042 0.721554 1.02185 -0.582196 0.247784 
ITEM: TIMESTEP
19000
ITEM: NUMBER OF ATOMS
10
ITEM: BOX BOUNDS pp pp pp
-1.8749112178243839e+00 1.8749112178243839e+00
-1.8749112178243839e+00 1.8749112178243839e+00
-1.8749112178243839e+00 1.8749112178243839e+00
ITEM: ATOMS id mol type x y z vx vy vz 
4 1 4 -1.12358 -1.09553 -0.413229 -0.316376 1.52561 -0.35368 
3 1 3 -0.734437 -1.12645 -1.2947 0.479613 -0.507981 -0.960081 
9 1 9 1.65693 -0.795645 1.61835 0.214936 -0.307703 0.261019 
2 1 2 -0.339999 -1.10616 1.57867 0.0667667 -0.306218 -0.427748 
10 1 10 1.47702 -1.66249 -1.68379 -0.105171 1.09483 0.405991 
5 1 5 -1.52223 -1.07066 0.464181 -0.589542 -0.214254 0.156625 
6 1 6 -1.54759 1.7922 0.298803 0.48626 0.632743 -1.4171 
7 1 7 -1.73306 0.907679 0.753166 0.216468 0.2804 0.823551 
8 1 8 1.85243 0.0517794 1.19258 -0.943482 0.0120068 -0.900299 
1 1 1 0.0613636 -1.09026 0.710847 0.319761 -0.312331 0.621114 
ITEM: TIMESTEP
20000
ITEM: NUMBER OF ATOMS
10
ITEM: BOX BOUNDS pp pp pp
-1.8367645262830661e+00 1.8367645262830661e+00
-1.8367645262830661e+00 1.8367645262830661e+00
-1.8367645262830661e+00 1.8367645262830661e+00
ITEM: ATOMS id mol type x y z vx vy vz 
3 1 3 -0.218044 -1.61088 -1.57189 0.241512 0.563792 -0.348204 
10 1 10 1.77487 -0.74622 -0.712306 -0.0134412 1.44443 -1.47184 
4 1 4 -0.999751 1.76986 -1.01115 -0.194258 -1.54111 0.0864135 
5 1 5 -1.7997 1.48128 -0.440122 0.860821 0.00746144 -0.844927 
1 1 1 1.3146 -1.02495 0.973938 0.917582 -0.313235 1.31758 
7 1 7 1.24885 1.10537 0.73153 0.142308 0.717831 -0.466662 
6 1 6 1.07821 1.70566 -0.0331663 0.60702 0.269181 0.766138 
2 1 2 0.55323 -1.31978 1.5229 -0.342739 -0.0939852 0.116601 
9 1 9 1.57649 -0.107484 -1.46938 1.0494 -0.309802 -0.318227 
8 1 8 1.3992 0.51718 1.4847 -0.548936 -0.255821 -0.580202 
ITEM: TIMESTEP
21000
ITEM: NUMBER OF ATOMS
10
ITEM: BOX BOUNDS pp pp pp
-1.8006488940083980e+00 1.8006488940083980e+00
-1.8006488940083980e+00 1.8006488940083980e+00
-1.8006488940083980e+00 1.8006488940083980e+00
ITEM: ATOMS id mol type x y z vx vy vz 
3 1 3 0.205038 -1.61978 -1.21482 -0.0176819 0.0756551 -0.600849 
9 1 9 0.839549 0.0898928 -1.59717 1.03303 0.630271 -1.3489 
4 1 4 -0.724044 1.66121 -1.36902 -0.469437 -0.97986 -0.3348 
10 1 10 0.64314 -0.255744 -0.70439 1.17989 -1.06024 1.03895 
5 1 5 -1.6245 1.35364 -1.52805 -0.683107 0.381422 -1.19156 
6 1 6 1.4704 1.11696 -0.689596 0.0183714 -0.377227 0.73185 
7 1 7 1.2823 0.783359 0.203616 -0.833639 0.795015 -0.104936 
2 1 2 1.12269 -1.30832 -1.05716 -0.615371 0.39719 -0.335257 
1 1 1 -1.58284 -0.99186 -0.885451 0.406266 -0.914649 -0.906487 
8 1 8 1.05607 0.435066 1.11449 0.277536 0.745344 -0.271381 
ITEM: TIMESTEP
22000
ITEM: NUMBER OF ATOMS
10
ITEM: BOX BOUNDS pp pp pp
-1.7666013204412541e+00 1.7666013204412541e+00
-1.7666013204412541e+00 1.7666013204412541e+00
-1.7666013204412541e+00 1.7666013204412541e+00
ITEM: ATOMS id mol type x y z vx vy vz 
1 1 1 -1.49001 1.29825 1.49757 1.4466 0.509893 0.424771 
3 1 3 0.397138 1.62699 -1.06754 0.595878 0.144339 -0.0921118 
2 1 2 1.21668 1.46449 -1.54052 -0.407631 -1.17501 -0.0485326 
9 1 9 0.408144 0.423652 -1.74209 -1.00653 0.54034 -0.900171 
5 1 5 -1.23637 -1.59675 -0.143095 -0.222939 0.415275 -0.682284 
4 1 4 -0.414254 -1.75876 -0.61196 0.315624 0.732316 0.514199 
10 1 10 -0.161376 0.164869 -0.967166 -0.0542959 0.95994 0.526378 
6 1 6 -1.58446 1.13183 -0.643504 -0.225705 -0.118943 -0.0713681 
7 1 7 1.46874 0.894766 0.16205 0.606338 -0.705086 -0.568048 
8 1 8 0.958959 0.671623 0.998107 -1.06836 -0.881813 -0.339667 
ITEM: TIMESTEP
23000
ITEM: NUMBER OF ATOMS
10
ITEM: BOX BOUNDS pp pp pp
-1.7344738879867345e+00 1.7344738879867345e+00
-1.7344738879867345e+00 1.7344738879867345e+00
-1.7344738879867345e+00 1.7344738879867345e+00
ITEM: ATOMS id mol type x y z vx vy vz 
10 1 10 -0.36934 -0.222951 -1.39827 -0.777795 0.0617122 0.899677 
3 1 3 0.517696 1.56514 -0.870101 -0.177803 0.0360708 -0.19001 
2 1 2 1.28597 1.68748 -1.51475 -0.48969 -0.841085 0.275912 
5 1 5 -1.00965 1.35851 0.388541 -1.10794 -0.265696 1.5633 
4 1 4 -0.254743 1.45159 -0.246019 1.00542 0.682204 -0.0232829 
6 1 6 -1.34916 1.38302 -0.510479 1.11018 0.157325 -0.726792 
7 1 7 1.50415 0.988219 0.10556 0.22656 0.0492407 0.276577 
9 1 9 0.245651 0.1741 1.40104 -0.377398 -0.546404 0.256774 
8 1 8 0.849911 0.5648 0.783789 0.576257 -0.987649 0.781796 
1 1 1 -1.40752 -1.67402 1.33575 -0.246368 0.275395 0.904297 
ITEM: TIMESTEP
24000
ITEM: NUMBER OF ATOMS
10
ITEM: BOX BOUNDS pp pp pp
-1.7042214475619764e+00 1.7042214475619764e+00
-1.7042214475619764e+00 1.7042214475619764e+00
-1.7042214475619764e+00 1.7042214475619764e+00
ITEM: ATOMS id mol type x y z vx vy vz 
2 1 2 1.56801 -1.35781 -1.60932 -0.663795 -0.285124 0.998317 
10 1 10 -1.18346 0.745606 -1.52645 -0.210679 0.184384 1.29736 
3 1 3 0.948699 1.57728 -0.969502 -0.112513 -0.356812 -0.188143 
6 1 6 -1.2362 0.157924 -0.0935843 -0.738496 0.201062 -0.436004 
4 1 4 0.329274 1.08281 -0.366629 0.120912 -2.2077 0.611946 
5 1 5 -0.296225 0.58237 0.227737 0.781049 1.39658 1.06824 
7 1 7 1.35511 0.320753 0.396154 -0.443736 -0.564753 0.336917 
1 1 1 -1.26408 -0.888461 1.16819 0.328941 -0.592452 0.135867 
9 1 9 -0.304399 0.614173 1.37422 -0.874523 -1.00108 -0.886643 
8 1 8 0.519766 0.488242 0.874239 -0.789849 -0.263883 0.435469 
ITEM: TIMESTEP
25000
ITEM: NUMBER OF ATOMS
10
ITEM: BOX BOUNDS pp pp pp
-1.6752048991251740e+00 1.6752048991251740e+00
-1.6752048991251740e+00 1.6752048991251740e+00
-1.6752048991251740e+00 1.6752048991251740e+00
ITEM: ATOMS id mol type x y z vx vy vz 
2 1 2 1.56263 1.43705 1.66389 0.324468 -1.34372 0.0634941 
10 1 10 -0.400967 -0.557725 -0.997576 -0.45996 -1.03349 -0.420926 
3 1 3 0.767809 1.58897 -1.11406 1.07501 -0.109567 1.04754 
6 1 6 -1.46466 1.21911 -0.358871 0.795104 0.350399 -0.442899 
4 1 4 -0.0385054 -1.60362 -0.522921 -0.48173 0.595436 -0.227734 
5 1 5 -0.820456 -1.46073 0.0175316 -0.759772 -0.559982 0.715849 
7 1 7 1.33739 0.77472 0.31919 -1.40205 0.888403 -0.444425 
1 1 1 -1.01915 1.26589 1.1278 0.875178 0.969826 0.509485 
9 1 9 0.172474 -0.113109 -1.66212 0.617738 -0.170641 0.805977 
8 1 8 0.746157 0.308067 1.00219 0.29879 0.305778 -0.0541497 
ITEM: TIMESTEP
26000
ITEM: NUMBER OF ATOMS
10
ITEM: BOX BOUNDS pp pp pp
-1.6471987023194510e+00 1.6471987023194510e+00
-1.6471987023194510e+00 1.6471987023194510e+00
-1.6471987023194510e+00 1.6471987023194510e+00
ITEM: ATOMS id mol type x y z vx vy vz 
10 1 10 -1.08361 0.442414 -1.55581 0.0408434 0.0607402 -0.363903 
3 1 3 0.956534 1.07016 -0.979374 -0.488852 -0.228869 0.241589 
2 1 2 -1.48449 1.54439 -1.26878 -0.957112 0.645334 -0.108438 
4 1 4 0.13267 0.59284 -0.697814 0.106338 -0.74864 0.057925 
5 1 5 -0.694538 0.114229 -0.418831 -1.87154 0.315896 0.553479 
6 1 6 -0.982805 1.01715 0.0080797 0.15681 0.932103 0.495267 
7 1 7 1.45544 0.877002 0.441939 1.58923 -0.291099 -0.326107 
9 1 9 -0.275883 0.609414 1.31674 0.156198 0.644068 -0.129915 
8 1 8 0.567005 0.758381 0.866456 -0.686858 -1.02031 1.32473 
1 1 1 -0.649905 -1.32106 -1.53195 -0.207127 0.840932 0.643105 
ITEM: TIMESTEP
27000
ITEM: NUMBER OF ATOMS
10
ITEM: BOX BOUNDS pp pp pp
-1.6208405734229767e+00 1.6208405734229767e+00
-1.6208405734229767e+00 1.6208405734229767e+00
-1.6208405734229767e+00 1.6208405734229767e+00
ITEM: ATOMS id mol type x y z vx vy vz 
1 1 1 1.47732 -0.69362 -1.39195 0.594367 0.423266 -0.60972 
10 1 10 -0.0304518 -1.50714 -1.25054 -0.0300417 0.38919 1.01733 
2 1 2 1.03027 -1.47697 -1.06391 0.567022 -0.101832 0.481134 
3 1 3 0.567666 0.943573 -0.766545 -0.282605 0.237373 0.137021 
5 1 5 -0.386773 -0.632016 -0.158138 -1.00171 0.403977 -0.0710725 
4 1 4 0.095261 0.156152 -0.47195 0.105602 0.464393 -0.550424 
6 1 6 -1.05974 -0.248075 -0.648909 -0.0582312 0.723118 -0.215632 
7 1 7 1.61076 0.247117 0.00564878 1.18352 -0.560126 -0.0750415 
9 1 9 0.494054 1.22594 1.32961 0.442437 0.137972 -1.09589 
8 1 8 1.04715 0.732151 0.650052 0.249309 0.377237 0.948854 
ITEM: TIMESTEP
28000
ITEM: NUMBER OF ATOMS
10
ITEM: BOX BOUNDS pp pp pp
-1.5970948645438312e+00 1.5970948645438312e+00
-1.5970948645438312e+00 1.5970948645438312e+00
-1.5970948645438312e+00 1.5970948645438312e+00
ITEM: ATOMS id mol type x y z vx vy vz 
10 1 10 -0.450531 -0.992317 -1.57061 -0.364916 -0.740959 -0.206276 
2 1 2 1.57082 0.682935 -1.25554 0.150972 -0.00681541 0.927636 
6 1 6 -1.10842 0.128883 -0.495923 1.29346 -1.00997 -0.185201 
4 1 4 0.0514499 0.164614 -0.0907337 -0.0220781 -0.413965 0.53064 
3 1 3 0.82662 0.439078 -0.677239 -1.11139 1.38185 0.35452 
5 1 5 -0.687692 -0.101697 0.553398 0.217177 -0.221583 1.28725 
7 1 7 1.51035 0.661666 0.0182133 0.690424 -0.148437 0.00340528 
8 1 8 0.876828 1.18131 0.557216 -0.194245 1.04985 0.205456 
9 1 9 0.206089 -1.50655 1.09627 0.614321 -0.106694 -0.0589882 
1 1 1 -0.85924 0.95094 1.34 0.274445 0.597854 -0.237281 
ITEM: TIMESTEP
29000
ITEM: NUMBER OF ATOMS
10
ITEM: BOX BOUNDS pp pp pp
-1.5761709465015008e+00 1.5761709465015008e+00
-1.5761709465015008e+00 1.5761709465015008e+00
-1.5761709465015008e+00 1.5761709465015008e+00
ITEM: ATOMS id mol type x y z vx vy vz 
10 1 10 -0.330657 -0.698925 -1.56192 1.14317 0.326713 -1.11224 
2 1 2 1.45497 0.975231 -1.43673 1.22818 0.0884846 -0.164709 
6 1 6 -1.1393 -0.220487 -0.0236802 -0.113871 -0.669337 -2.18892 
4 1 4 0.283619 -0.179314 -0.352854 1.20317 -0.681741 0.316753 
3 1 3 0.857249 0.410365 -0.903648 -0.0925241 -0.535802 0.134553 
5 1 5 -0.305727 -0.773583 0.188031 -0.716569 1.18001 0.0750827 
7 1 7 1.43343 0.456309 0.395959 -0.198514 -0.233269 -0.823145 
8 1 8 0.86114 1.14267 0.779953 0.412868 0.854465 0.323675 
9 1 9 0.24017 -1.35105 1.19579 0.345539 0.191257 -0.366557 
1 1 1 -1.12569 1.51287 1.19415 -0.521093 0.599473 -0.385907 
ITEM: TIMESTEP
30000
ITEM: NUMBER OF ATOMS
10
ITEM: BOX BOUNDS pp pp pp
-1.5560863989084586e+00 1.5560863989084586e+00
-1.5560863989084586e+00 1.5560863989084586e+00
-1.5560863989084586e+00 1.5560863989084586e+00
ITEM: ATOMS id mol type x y z vx vy vz 
10 1 10 -0.109435 -0.778168 -1.18926 -0.0979338 -0.667881 0.193101 
3 1 3 0.874787 0.354912 -0.878635 -0.359829 -0.447443 -0.325796 
2 1 2 1.56166 0.819739 -1.47058 0.195306 0.163852 1.22224 
6 1 6 -1.24224 -0.193312 -0.368301 0.416441 -0.592642 0.181003 
4 1 4 0.18736 -0.0821004 -0.306571 0.25335 -0.447351 -0.219906 
5 1 5 -0.49878 -0.490167 0.287651 0.333559 0.232301 -0.326534 
7 1 7 1.37969 0.421222 0.201185 -0.33481 0.250333 0.922431 
8 1 8 0.879542 1.06083 0.771164 1.23864 -0.140782 0.324958 
9 1 9 0.381152 -1.41874 1.34958 -0.401419 0.154969 -0.469515 
1 1 1 -0.903349 1.25851 1.07881 -1.07982 0.13684 0.00897347 
ITEM: TIMESTEP
31000
ITEM: NUMBER OF ATOMS
10
ITEM: BOX BOUNDS pp pp pp
-1.5368285915691982e+00 1.5368285915691982e+00
-1.5368285915691982e+00 1.5368285915691982e+00
-1.5368285915691982e+00 1.5368285915691982e+00
ITEM: ATOMS id mol type x y z vx vy vz 
10 1 10 0.387054 -0.167531 0.937373 -0.0745827 -0.160023 -1.09723 
3 1 3 0.694529 0.335959 -0.931733 -0.104093 -0.392315 0.0626598 
2 1 2 1.52609 0.606851 -1.33611 0.731414 -0.525567 0.781202 
6 1 6 -1.2499 -0.817474 0.721487 -0.161398 -0.85546 -0.887996 
4 1 4 -0.153578 0.0463731 -0.482133 -1.45162 -0.122585 0.0457603 
5 1 5 -1.01594 -0.254393 -0.0286002 -0.547822 0.0546177 0.597896 
7 1 7 1.45417 0.122478 0.732641 0.324944 0.697544 0.449208 
9 1 9 0.737373 -1.12182 0.853799 0.662808 -0.610975 -0.72987 
1 1 1 -0.682977 0.845362 1.30273 -0.204484 0.620046 -1.13481 
8 1 8 1.08319 1.04879 0.779259 0.455156 -0.97214 1.15618 
ITEM: TIMESTEP
32000
ITEM: NUMBER OF ATOMS
10
ITEM: BOX BOUNDS pp pp pp
-1.5183649760698701e+00 1.5183649760698701e+00
-1.5183649760698701e+00 1.5183649760698701e+00
-1.5183649760698701e+00 1.5183649760698701e+00
ITEM: ATOMS id mol type x y z vx vy vz 
3 1 3 0.618951 -0.50211 -0.743381 0.958599 -0.0682305 -0.0300396 
2 1 2 -1.51865 -0.24988 -1.03091 0.827483 -0.0893024 1.14017 
5 1 5 -1.13781 -1.01391 -0.148152 0.37483 0.42518 0.530441 
4 1 4 -0.253403 -0.749942 -0.430878 -0.501409 -0.63874 0.221438 
6 1 6 -1.23968 -0.00744159 -0.00242305 -0.482844 -0.229908 0.281747 
9 1 9 0.870266 -0.360379 0.948864 -0.756452 0.0928695 0.32858 
7 1 7 1.4867 0.878628 0.299771 0.11544 1.38159 0.667703 
8 1 8 1.18699 -1.27106 0.615909 -0.508071 -0.323201 -0.508559 
10 1 10 0.581935 0.554742 1.27389 0.365809 -0.482655 0.236335 
1 1 1 -0.593555 0.033803 -1.30764 -0.854086 -0.392712 -0.589129 
ITEM: TIMESTEP
33000
ITEM: NUMBER OF ATOMS
10
ITEM: BOX BOUNDS pp pp pp
-1.5002062400466523e+00 1.5002062400466523e+00
-1.5002062400466523e+00 1.5002062400466523e+00
-1.5002062400466523e+00 1.5002062400466523e+00
ITEM: ATOMS id mol type x y z vx vy vz 
3 1 3 0.901756 -0.181416 -0.799226 0.472943 0.484738 -0.40679 
2 1 2 1.38476 -0.389229 1.35475 -0.117297 -0.623542 0.557607 
1 1 1 -1.13824 -0.629661 0.523572 -0.12826 1.55194 0.695399 
5 1 5 -0.124815 0.245353 0.791658 -0.111325 0.580439 0.57433 
4 1 4 0.401468 0.0328633 -0.0144604 -0.446487 0.0167028 -0.748195 
6 1 6 -0.624113 0.347777 -0.0697194 0.142713 0.328671 1.18035 
7 1 7 -1.33024 0.871247 0.32209 0.920894 0.2265 0.606578 
8 1 8 0.98351 1.40574 0.721699 -0.715315 -2.3092 -0.75356 
9 1 9 0.291405 -1.08625 1.12623 1.27102 0.153754 0.053589 
10 1 10 -0.453198 -0.557777 -1.48113 -0.133472 -0.0134947 -0.202264 
ITEM: TIMESTEP
34000
ITEM: NUMBER OF ATOMS
10
ITEM: BOX BOUNDS pp pp pp
-1.4835512376901880e+00 1.4835512376901880e+00
-1.4835512376901880e+00 1.4835512376901880e+00
-1.4835512376901880e+00 1.4835512376901880e+00
ITEM: ATOMS id mol type x y z vx vy vz 
10 1 10 -1.02763 -0.982604 -1.5713 -0.382456 0.255131 0.0438372 
3 1 3 1.04248 -0.165856 -1.26986 0.772728 0.123222 0.00290589 
6 1 6 -0.247528 0.578569 0.916272 1.0646 0.378667 0.677029 
4 1 4 0.605285 -0.182804 -0.413632 -1.04057 -1.05929 0.96855 
7 1 7 -1.16517 0.947852 1.03501 -0.531506 0.862687 1.0509 
1 1 1 -1.09286 -0.0890151 -0.0306809 1.04308 -0.209654 -0.17537 