ITEM: TIMESTEP
0
ITEM: NUMBER OF ATOMS
10
ITEM: BOX BOUNDS pp pp pp
-2.5000000000000000e+01 2.5000000000000000e+01
-2.5000000000000000e+01 2.5000000000000000e+01
-2.5000000000000000e+01 2.5000000000000000e+01
ITEM: ATOMS id mol type x y z vx vy vz 
8 1 8 4.37917 17.2388 -6.13967 0 0 0 
7 1 7 5.33337 17.0477 -6.02397 0 0 0 
6 1 6 6.28757 16.8566 -5.90827 0 0 0 
5 1 5 7.24177 16.6655 -5.79257 0 0 0 
10 1 10 2.47077 17.621 -6.37107 0 0 0 
9 1 9 3.42497 17.4299 -6.25537 0 0 0 
4 1 4 8.19597 16.4744 -5.67687 0 0 0 
3 1 3 9.15017 16.2834 -5.56117 0 0 0 
2 1 2 10.1044 16.0923 -5.44547 0 0 0 
1 1 1 11.0586 15.9012 -5.32977 0 0 0 
ITEM: TIMESTEP
1000
ITEM: NUMBER OF ATOMS
10
ITEM: BOX BOUNDS pp pp pp
-2.5000000000000000e+01 2.5000000000000000e+01
-2.5000000000000000e+01 2.5000000000000000e+01
-2.5000000000000000e+01 2.5000000000000000e+01
ITEM: ATOMS id mol type x y z vx vy vz 
8 1 8 4.7624 17.2322 -7.0017 0.365132 0.245811 -1.63668 
7 1 7 5.5072 16.8282 -6.49477 0.592815 0.315046 0.0205039 
6 1 6 6.2321 16.4515 -6.00085 -1.13272 0.598449 0.787912 
5 1 5 7.25352 16.1885 -5.96981 -0.140261 -1.40564 -0.103228 
10 1 10 3.21186 17.9787 -8.00206 -0.555247 -0.524885 -0.252611 
9 1 9 3.97011 17.6148 -7.53539 0.979948 -0.0475988 0.989994 
4 1 4 8.02261 16.2526 -5.33007 -0.203881 0.45671 0.158115 
3 1 3 8.79437 16.2858 -4.68714 0.415509 -0.184912 0.205535 
2 1 2 9.557 16.3495 -4.05408 -0.379162 0.320143 0.656079 
1 1 1 10.3355 16.429 -3.42837 0.252855 0.94943 0.093511 
ITEM: TIMESTEP
2000
ITEM: NUMBER OF ATOMS
10
ITEM: BOX BOUNDS pp pp pp
-2.5000000000000000e+01 2.5000000000000000e+01
-2.5000000000000000e+01 2.5000000000000000e+01
-2.5000000000000000e+01 2.5000000000000000e+01
ITEM: ATOMS id mol type x y z vx vy vz 
10 1 10 4.00927 18.1205 -8.1383 1.23339 1.02553 -1.05933 
9 1 9 4.48249 17.5892 -7.42927 0.299186 0.0607206 -0.421772 
8 1 8 4.97413 17.1055 -6.73194 -1.62568 -1.12056 0.162267 
6 1 6 5.90046 16.0945 -5.37338 -0.668509 0.788779 1.24422 
5 1 5 6.79123 15.772 -5.52715 -0.884554 -0.194611 1.54906 
7 1 7 5.44583 16.5979 -6.04986 -0.278178 0.10055 -0.294634 
4 1 4 7.67946 16.1052 -5.24039 -0.835819 -1.24919 0.199494 
3 1 3 8.58715 16.4245 -4.96008 -0.201583 0.592729 0.18145 
2 1 2 9.45022 16.7452 -4.68607 0.0362932 -0.0858271 -0.247109 
1 1 1 10.3265 17.0564 -4.36782 0.686667 0.207974 0.289793 
ITEM: TIMESTEP
3000
ITEM: NUMBER OF ATOMS
10
ITEM: BOX BOUNDS pp pp pp
-2.5000000000000000e+01 2.5000000000000000e+01
-2.5000000000000000e+01 2.5000000000000000e+01
-2.5000000000000000e+01 2.5000000000000000e+01
ITEM: ATOMS id mol type x y z vx vy vz 
10 1 10 5.30145 17.5293 -9.07359 -0.532078 0.582287 -1.34687 
9 1 9 5.34025 17.4766 -8.12083 -0.17565 -0.523839 1.13238 
8 1 8 5.39714 17.3997 -7.11834 -0.535347 -0.257144 -0.880227 
7 1 7 5.44283 17.3551 -6.1361 0.161141 0.532219 -0.489397 
6 1 6 5.51682 17.3116 -5.18657 0.121023 -0.62213 0.0214018 
5 1 5 6.46685 17.1051 -4.99485 -0.241766 1.41949 -0.241975 
4 1 4 7.29343 16.6079 -4.78563 -1.38124 -1.11153 -0.130136 
3 1 3 8.13443 16.1026 -4.59187 -0.309984 0.399361 0.0582056 
2 1 2 8.97268 15.6188 -4.36376 0.22346 0.00884745 -0.324479 
1 1 1 9.78083 15.104 -4.1327 -0.293944 0.701138 -0.0490015 
ITEM: TIMESTEP
4000
ITEM: NUMBER OF ATOMS
10
ITEM: BOX BOUNDS pp pp pp
-2.5000000000000000e+01 2.5000000000000000e+01
-2.5000000000000000e+01 2.5000000000000000e+01
-2.5000000000000000e+01 2.5000000000000000e+01
ITEM: ATOMS id mol type x y z vx vy vz 
10 1 10 4.01903 16.4287 -8.59916 -0.0472179 -0.0757477 -1.03588 
9 1 9 4.50398 16.5323 -7.7572 -0.250619 0.363919 -0.190865 
8 1 8 5.02305 16.6591 -6.89245 -0.638269 0.244617 0.237199 
7 1 7 5.50465 16.783 -6.081 0.760708 0.101028 -0.718359 
6 1 6 6.01602 16.9201 -5.24922 0.450445 -0.782864 0.313212 
5 1 5 6.66702 17.553 -4.69561 -0.407411 2.72859 1.47407 
2 1 2 9.43423 16.5228 -4.82039 -0.409869 0.959642 0.131829 
3 1 3 8.51446 16.8595 -4.78697 -0.818232 -0.553379 0.265915 
4 1 4 7.6008 17.1838 -4.76039 -1.11861 -0.0812552 0.500224 
1 1 1 10.3635 16.1686 -4.86186 0.0291049 -0.179786 -0.523257 
ITEM: TIMESTEP
5000
ITEM: NUMBER OF ATOMS
10
ITEM: BOX BOUNDS pp pp pp
-2.5000000000000000e+01 2.5000000000000000e+01
-2.5000000000000000e+01 2.5000000000000000e+01
-2.5000000000000000e+01 2.5000000000000000e+01
ITEM: ATOMS id mol type x y z vx vy vz 
10 1 10 4.54272 15.9506 -8.73017 -0.422933 -0.521738 0.406078 
9 1 9 4.89192 16.0964 -7.83628 -0.363021 0.504931 -0.387589 
8 1 8 5.26695 16.2404 -6.92124 -0.392224 -0.493874 0.913439 
7 1 7 5.64001 16.3882 -6.01475 0.196214 -0.145654 -0.00475314 
6 1 6 6.00996 16.5419 -5.04448 1.66058 -0.0851177 0.118612 
2 1 2 9.23567 17.3183 -4.87676 -1.24048 -0.0630765 0.446316 
1 1 1 10.1984 17.3173 -4.9892 -0.268429 -0.45829 0.24551 
4 1 4 7.28325 17.2591 -4.68695 -1.29933 -0.495764 -1.70723 
3 1 3 8.2441 17.2785 -4.77386 -1.24681 0.672693 -0.128491 
5 1 5 6.33368 17.2201 -4.63056 -1.84858 -0.679078 0.878308 
ITEM: TIMESTEP
6000
ITEM: NUMBER OF ATOMS
10
ITEM: BOX BOUNDS pp pp pp
-2.5000000000000000e+01 2.5000000000000000e+01
-2.5000000000000000e+01 2.5000000000000000e+01
-2.5000000000000000e+01 2.5000000000000000e+01
ITEM: ATOMS id mol type x y z vx vy vz 
10 1 10 3.10701 15.9517 -6.61787 0.403323 0.324748 0.613228 
9 1 9 4.03446 16.2373 -6.42657 1.21635 -0.040407 2.19152 
8 1 8 4.94147 16.5182 -6.24432 -0.196503 -0.677327 -0.308494 
7 1 7 5.90155 16.8191 -6.07336 1.52246 -0.357626 0.223701 
6 1 6 6.79557 17.1238 -5.89456 0.258949 0.565911 -0.445656 
5 1 5 7.16126 17.4395 -6.689 0.395303 0.939547 -0.164666 
4 1 4 7.83611 17.1931 -6.06738 -0.59926 -0.343586 -0.185431 
3 1 3 8.55626 16.9632 -5.45273 -0.300765 0.608696 -0.695182 
2 1 2 9.29269 16.7636 -4.81386 1.36869 0.870741 -0.2712 
1 1 1 10.0203 16.6013 -4.22458 1.55364 -0.807081 0.421187 
ITEM: TIMESTEP
7000
ITEM: NUMBER OF ATOMS
10
ITEM: BOX BOUNDS pp pp pp
-2.5000000000000000e+01 2.5000000000000000e+01
-2.5000000000000000e+01 2.5000000000000000e+01
-2.5000000000000000e+01 2.5000000000000000e+01
ITEM: ATOMS id mol type x y z vx vy vz 
5 1 5 7.27082 18.0395 -6.11021 0.318627 -0.0128622 0.563318 
10 1 10 3.2683 15.4458 -6.01781 -0.207385 -0.0468685 -0.629497 
9 1 9 4.03061 16.0943 -6.10886 0.138737 -0.194266 1.53155 
8 1 8 4.76095 16.6982 -6.19002 -0.307257 -0.595455 -0.19747 
7 1 7 5.54815 17.3442 -6.27968 0.0749423 -0.716599 0.283325 
6 1 6 6.34393 17.9559 -6.37016 0.158531 -0.0458114 -0.0517166 
4 1 4 8.03544 17.438 -5.81701 -0.754482 -0.44871 0.858793 
3 1 3 8.74802 16.8313 -5.50411 1.65252 1.01801 -0.322052 
2 1 2 9.45338 16.209 -5.20752 0.164636 0.402299 -0.399636 
1 1 1 10.1871 15.5546 -4.89888 -0.641126 -0.456182 -0.0662432 
ITEM: TIMESTEP
8000
ITEM: NUMBER OF ATOMS
10
ITEM: BOX BOUNDS pp pp pp
-2.5000000000000000e+01 2.5000000000000000e+01
-2.5000000000000000e+01 2.5000000000000000e+01
-2.5000000000000000e+01 2.5000000000000000e+01
ITEM: ATOMS id mol type x y z vx vy vz 
10 1 10 3.6813 15.1033 -6.77514 -0.107126 0.208196 -0.241305 
9 1 9 4.43043 15.758 -6.75006 0.142699 -0.381866 -0.503851 
8 1 8 5.17537 16.4075 -6.69092 -1.50516 -0.154157 -0.925612 
7 1 7 5.90786 17.0662 -6.61613 1.04165 0.396 -0.643263 
6 1 6 6.66916 17.7297 -6.54891 1.10966 -0.257023 -0.550819 
5 1 5 6.50554 17.4421 -5.58139 0.359526 -0.894152 0.316943 
1 1 1 10.193 16.771 -4.45678 0.102263 0.013331 1.65369 
2 1 2 9.29139 16.9466 -4.75086 -0.0736186 -0.0293185 -0.466168 
3 1 3 8.36981 17.1191 -5.02259 -0.387182 -0.756518 0.867029 
4 1 4 7.42289 17.2673 -5.31147 -0.923429 -0.78953 -0.207695 
ITEM: TIMESTEP
9000
ITEM: NUMBER OF ATOMS
10
ITEM: BOX BOUNDS pp pp pp
-2.5000000000000000e+01 2.5000000000000000e+01
-2.5000000000000000e+01 2.5000000000000000e+01
-2.5000000000000000e+01 2.5000000000000000e+01
ITEM: ATOMS id mol type x y z vx vy vz 
10 1 10 3.94745 14.622 -6.16111 0.153406 -0.608709 -0.761634 
9 1 9 4.70821 15.2006 -6.28402 0.0738579 -0.165078 -0.30893 
8 1 8 5.47942 15.7883 -6.42101 -0.863939 -0.411684 -0.688991 
7 1 7 6.20019 16.3526 -6.56913 0.670347 0.703212 -0.0709589 
6 1 6 6.94589 16.9215 -6.71856 0.488 -0.0513766 1.19243 
4 1 4 7.21171 17.5699 -5.65044 1.20303 0.860935 0.78843 
5 1 5 6.31439 17.3599 -6.06236 0.595904 -1.77533 -0.121441 
3 1 3 8.09777 17.7534 -5.26169 -1.14394 -1.03738 -1.16298 
2 1 2 8.91607 17.9299 -4.88628 0.707501 0.127969 0.0717148 
1 1 1 9.8256 18.1128 -4.48965 -0.609154 0.66866 0.0325258 
ITEM: TIMESTEP
10000
ITEM: NUMBER OF ATOMS
10
ITEM: BOX BOUNDS pp pp pp
-2.5000000000000000e+01 2.5000000000000000e+01
-2.5000000000000000e+01 2.5000000000000000e+01
-2.5000000000000000e+01 2.5000000000000000e+01
ITEM: ATOMS id mol type x y z vx vy vz 
7 1 7 6.64644 16.681 -7.09275 0.0514972 -0.107353 0.67749 
6 1 6 7.37085 17.2182 -7.501 0.43326 -0.368685 -0.525267 
10 1 10 4.5506 15.1178 -5.83913 0.0798163 0.750418 0.0193946 
9 1 9 5.19059 15.6403 -6.262 0.366336 0.0523622 -1.06712 
8 1 8 5.92368 16.1718 -6.68946 0.803775 1.36781 -0.872741 
5 1 5 6.88441 17.763 -6.82864 -0.746762 0.525978 1.14143 
4 1 4 7.22402 17.5338 -5.93005 0.510806 -0.824618 0.344819 
3 1 3 7.59367 17.3384 -5.02275 -0.823815 0.168528 -1.45965 
2 1 2 7.94519 17.1495 -4.11291 -1.02113 -0.95415 -0.0192513 
1 1 1 8.31726 16.9972 -3.22556 0.00796414 0.550254 0.685928 
ITEM: TIMESTEP
11000
ITEM: NUMBER OF ATOMS
10
ITEM: BOX BOUNDS pp pp pp
-2.5000000000000000e+01 2.5000000000000000e+01
-2.5000000000000000e+01 2.5000000000000000e+01
-2.5000000000000000e+01 2.5000000000000000e+01
ITEM: ATOMS id mol type x y z vx vy vz 
6 1 6 6.89474 17.202 -6.6102 0.246647 0.766892 -0.385505 
8 1 8 5.32218 16.1771 -7.23611 1.58125 -1.46245 -1.06776 
7 1 7 6.10614 16.6905 -6.91273 -0.268429 0.467688 0.399168 
5 1 5 7.65062 17.7169 -6.26316 -0.0580838 -0.486952 -0.498394 
10 1 10 3.83053 15.1069 -7.92064 0.429512 -1.04462 -0.987425 
9 1 9 4.55203 15.6439 -7.60451 -0.143718 0.567751 0.186364 
4 1 4 7.92285 17.5327 -5.36799 -0.466801 -0.241789 -0.0319303 
3 1 3 8.19921 17.3397 -4.4386 0.295001 -0.292138 0.406266 
2 1 2 8.46649 17.1786 -3.51899 0.11198 0.0785759 0.445804 
1 1 1 8.70192 17.0227 -2.63133 0.308315 -0.17803 1.79082 
ITEM: TIMESTEP
12000
ITEM: NUMBER OF ATOMS
10
ITEM: BOX BOUNDS pp pp pp
-2.5000000000000000e+01 2.5000000000000000e+01
-2.5000000000000000e+01 2.5000000000000000e+01
-2.5000000000000000e+01 2.5000000000000000e+01
ITEM: ATOMS id mol type x y z vx vy vz 
10 1 10 5.80839 16.038 -9.92754 -0.772801 0.51898 -1.63488 
9 1 9 6.1932 16.2683 -9.00532 -0.784242 -0.255625 0.749884 
8 1 8 6.54923 16.4837 -8.13881 0.381811 0.495701 1.11054 
7 1 7 6.90843 16.7097 -7.28346 0.937735 0.150585 -1.31149 
6 1 6 7.29488 16.9202 -6.41981 0.0826034 0.568455 -0.243867 
5 1 5 6.77788 17.1253 -5.49684 0.528909 0.0313841 0.00423982 
4 1 4 6.88308 17.0771 -4.51263 -0.706375 1.27347 0.856818 
3 1 3 6.99899 17.0323 -3.54206 0.36138 0.469075 1.2723 
2 1 2 7.08552 16.9897 -2.57966 0.946687 -0.0930067 -0.227928 
1 1 1 7.14709 16.9667 -1.59811 -0.736461 -0.343209 -0.671761 
ITEM: TIMESTEP
13000
ITEM: NUMBER OF ATOMS
10
ITEM: BOX BOUNDS pp pp pp
-2.5000000000000000e+01 2.5000000000000000e+01
-2.5000000000000000e+01 2.5000000000000000e+01
-2.5000000000000000e+01 2.5000000000000000e+01
ITEM: ATOMS id mol type x y z vx vy vz 
10 1 10 8.35187 16.0585 -8.93752 0.571523 0.716065 0.571408 
9 1 9 8.0048 16.6086 -8.16237 0.41378 -0.0921919 -1.42408 
8 1 8 7.64893 17.1699 -7.44317 -0.390431 -0.22693 0.794748 
7 1 7 7.30341 17.721 -6.72555 -0.550399 0.880111 0.374383 
6 1 6 6.96356 18.2291 -5.98693 0.417893 -0.968967 -0.625875 
5 1 5 6.96098 17.7538 -5.13401 0.216584 -0.81508 0.131982 
4 1 4 6.38766 17.0436 -4.71481 1.46192 1.0458 -0.294922 
3 1 3 5.84427 16.3534 -4.28293 -0.251232 -1.53593 0.718754 
2 1 2 5.34665 15.6786 -3.80018 -1.11372 -0.235688 -0.0446542 
1 1 1 4.83458 14.9943 -3.31677 -1.38439 -0.486121 -0.666235 
ITEM: TIMESTEP
14000
ITEM: NUMBER OF ATOMS
10
ITEM: BOX BOUNDS pp pp pp
-2.5000000000000000e+01 2.5000000000000000e+01
-2.5000000000000000e+01 2.5000000000000000e+01
-2.5000000000000000e+01 2.5000000000000000e+01
ITEM: ATOMS id mol type x y z vx vy vz 
10 1 10 9.06995 15.9845 -8.15093 -0.333909 0.0991367 1.76701 
9 1 9 8.48247 16.5766 -7.61553 -0.0877097 0.096743 0.333281 
8 1 8 7.90341 17.1484 -7.06259 -0.180275 0.856521 0.540659 
7 1 7 7.33889 17.7186 -6.51225 0.15322 1.1537 -0.0124989 
6 1 6 6.74763 18.2789 -5.93737 -0.306362 -0.0130689 -1.1465 
5 1 5 6.32375 17.3768 -6.14781 0.92394 -0.717342 -0.0624983 
4 1 4 5.97773 16.8756 -5.41042 -1.16069 -0.628816 -0.516287 
2 1 2 5.25867 15.8834 -3.88252 0.740061 1.14874 -0.0641017 
3 1 3 5.62917 16.3654 -4.65336 -1.83102 -0.0831816 -0.207906 
1 1 1 4.91503 15.4027 -3.13145 -0.164156 -0.726845 0.477908 
ITEM: TIMESTEP
15000
ITEM: NUMBER OF ATOMS
10
ITEM: BOX BOUNDS pp pp pp
-2.5000000000000000e+01 2.5000000000000000e+01
-2.5000000000000000e+01 2.5000000000000000e+01
-2.5000000000000000e+01 2.5000000000000000e+01
ITEM: ATOMS id mol type x y z vx vy vz 
10 1 10 9.21572 15.9474 -7.22737 -0.294675 -0.524857 0.652036 
9 1 9 8.41244 16.5086 -7.09092 0.516979 0.63551 0.501802 
8 1 8 7.63093 17.0458 -6.99542 1.33445 0.138117 0.0501598 
5 1 5 5.37431 17.7179 -6.12232 0.461253 -0.561931 -0.558673 
7 1 7 6.89198 17.6143 -6.88366 -0.590944 -0.662767 0.377755 
6 1 6 6.1118 18.1746 -6.78219 1.263 0.191275 0.166119 
4 1 4 5.62786 17.1184 -5.39612 0.182164 -0.146642 0.484774 
3 1 3 5.85802 16.4945 -4.70149 0.232348 0.587657 0.403997 
2 1 2 6.12082 15.8335 -4.0071 0.940827 -0.01971 0.282279 
1 1 1 6.40283 15.156 -3.29765 0.137676 -0.639596 -0.937935 
ITEM: TIMESTEP
16000
ITEM: NUMBER OF ATOMS
10
ITEM: BOX BOUNDS pp pp pp
-2.5000000000000000e+01 2.5000000000000000e+01
-2.5000000000000000e+01 2.5000000000000000e+01
-2.5000000000000000e+01 2.5000000000000000e+01
ITEM: ATOMS id mol type x y z vx vy vz 
9 1 9 8.26395 17.0715 -6.35922 -0.379993 -0.336241 -0.190015 
10 1 10 9.18336 17.1017 -6.02768 0.15257 0.438108 0.385414 
8 1 8 7.30457 17.0199 -6.68966 -0.872929 0.187019 -0.0952477 
7 1 7 6.38455 16.967 -7.02275 0.532555 -0.231694 -0.534741 
6 1 6 5.42766 16.9166 -7.35862 0.930147 0.262114 -0.160665 
5 1 5 5.0206 17.0413 -6.49418 -0.870729 -0.0949987 0.108526 
4 1 4 5.63048 16.7738 -5.74642 0.0405073 -0.36072 -0.903348 
3 1 3 6.21275 16.4946 -5.01672 -0.111971 0.534779 -0.624687 
2 1 2 6.82403 16.2343 -4.26106 0.120246 0.962276 -0.793541 
1 1 1 7.39476 15.9901 -3.52793 0.153075 0.146525 -0.2727 
ITEM: TIMESTEP
17000
ITEM: NUMBER OF ATOMS
10
ITEM: BOX BOUNDS pp pp pp
-2.5000000000000000e+01 2.5000000000000000e+01
-2.5000000000000000e+01 2.5000000000000000e+01
-2.5000000000000000e+01 2.5000000000000000e+01
ITEM: ATOMS id mol type x y z vx vy vz 
6 1 6 5.42965 17.3695 -7.00382 1.45864 0.533572 1.061 
7 1 7 6.35107 17.2074 -6.74855 0.674393 0.231008 -0.359295 
8 1 8 7.25291 17.0234 -6.47088 -0.78905 0.186563 -0.0168871 
5 1 5 4.70249 17.1877 -6.15095 1.64372 0.335838 0.51975 
9 1 9 8.18152 16.8321 -6.19901 -0.380015 0.519286 0.335538 
10 1 10 9.07091 16.6432 -5.96828 0.058894 0.413326 -0.758903 
3 1 3 6.28309 16.5195 -5.21494 -0.0519138 -1.06582 -0.490094 
4 1 4 5.47756 16.8603 -5.69756 0.557318 0.434324 0.414104 
2 1 2 7.07424 16.1758 -4.76356 -0.184572 -0.963802 0.308342 
1 1 1 7.82327 15.7919 -4.28669 1.0238 0.318701 -0.0672758 
ITEM: TIMESTEP
18000
ITEM: NUMBER OF ATOMS
10
ITEM: BOX BOUNDS pp pp pp
-2.5000000000000000e+01 2.5000000000000000e+01
-2.5000000000000000e+01 2.5000000000000000e+01
-2.5000000000000000e+01 2.5000000000000000e+01
ITEM: ATOMS id mol type x y z vx vy vz 
7 1 7 6.3137 16.866 -6.92226 -0.227991 -1.05115 0.292155 
6 1 6 5.46527 16.7708 -7.40469 0.644141 -0.139171 0.14788 
5 1 5 5.02345 17.2019 -6.54898 0.723531 0.0977269 -0.768273 
8 1 8 7.12913 16.9661 -6.40218 -0.673114 0.834573 0.169801 
9 1 9 7.94994 17.0549 -5.90496 1.17589 -0.970318 -0.709798 
10 1 10 8.79326 17.1751 -5.38748 0.61074 1.00513 -0.680108 
3 1 3 6.40268 16.5482 -5.2854 -1.70941 0.597169 0.0662967 
4 1 4 5.70343 16.8715 -5.91517 -0.233645 -1.07615 0.223983 
1 1 1 7.77747 15.9168 -4.06428 0.500198 1.45024 -0.0750391 
2 1 2 7.08837 16.2396 -4.66883 0.512664 0.35837 0.358158 
ITEM: TIMESTEP
19000
ITEM: NUMBER OF ATOMS
10
ITEM: BOX BOUNDS pp pp pp
-2.5000000000000000e+01 2.5000000000000000e+01
-2.5000000000000000e+01 2.5000000000000000e+01
-2.5000000000000000e+01 2.5000000000000000e+01
ITEM: ATOMS id mol type x y z vx vy vz 
6 1 6 5.28064 17.0331 -6.55936 -0.679329 -0.741562 -0.0787528 
5 1 5 5.42761 17.8826 -6.61879 -0.189881 0.5025 -0.0490364 
7 1 7 6.25728 16.747 -6.55365 -0.252744 -0.879965 -0.514093 
4 1 4 5.8937 17.4581 -5.87327 0.555159 1.00786 -0.725089 
8 1 8 7.20086 16.4658 -6.56082 -0.327722 1.48998 -0.630302 
9 1 9 8.12411 16.1829 -6.56628 0.999593 -0.402671 0.227685 
3 1 3 6.34283 17.0479 -5.14838 -0.374033 -0.311149 -0.423884 
10 1 10 9.05252 15.9193 -6.61391 -0.146724 0.0667335 -0.0310108 
2 1 2 6.79713 16.6511 -4.38156 -0.102287 0.533559 0.00891824 
1 1 1 7.27003 16.223 -3.62822 0.347653 0.61827 0.417423 
ITEM: TIMESTEP
20000
ITEM: NUMBER OF ATOMS
10
ITEM: BOX BOUNDS pp pp pp
-2.5000000000000000e+01 2.5000000000000000e+01
-2.5000000000000000e+01 2.5000000000000000e+01
-2.5000000000000000e+01 2.5000000000000000e+01
ITEM: ATOMS id mol type x y z vx vy vz 
8 1 8 7.20277 16.2984 -7.09223 -0.358672 0.768592 -0.878807 
9 1 9 8.05939 15.952 -7.42573 -0.931035 -0.989206 0.0811871 
10 1 10 8.91166 15.572 -7.76783 0.687623 -0.863884 0.481332 
6 1 6 5.50242 16.9972 -6.44353 1.58441 -0.17511 0.431348 
7 1 7 6.33778 16.6346 -6.77014 0.252568 0.735071 -0.603709 
5 1 5 4.8111 17.2389 -5.91186 0.720334 -0.456597 -0.449136 
4 1 4 5.56226 17.2155 -5.28022 -0.352189 1.01225 -0.52134 
3 1 3 6.33617 17.212 -4.60439 0.443293 0.949841 0.614022 
2 1 2 7.07986 17.2361 -3.94366 0.556827 0.124726 -0.183438 
1 1 1 7.8433 17.2542 -3.26465 0.0915737 -0.62484 -0.709991 
ITEM: TIMESTEP
21000
ITEM: NUMBER OF ATOMS
10
ITEM: BOX BOUNDS pp pp pp
-2.5000000000000000e+01 2.5000000000000000e+01
-2.5000000000000000e+01 2.5000000000000000e+01
-2.5000000000000000e+01 2.5000000000000000e+01
ITEM: ATOMS id mol type x y z vx vy vz 
10 1 10 8.32272 15.3902 -8.18259 -0.0613042 -0.000774629 -0.73676 
9 1 9 7.58472 15.8562 -7.72977 0.939009 -0.630147 -1.29992 
8 1 8 6.87524 16.3499 -7.28344 -0.103342 1.22029 -0.741315 
7 1 7 6.14425 16.8734 -6.83273 -0.30497 0.713559 0.66256 
6 1 6 5.41687 17.4027 -6.41829 0.601122 -0.924597 -0.865386 
5 1 5 5.11701 17.6146 -5.49693 0.0445659 -0.606317 0.381953 
4 1 4 5.89872 17.3828 -4.95849 -0.505179 0.433191 -1.10605 
3 1 3 6.6568 17.1517 -4.42647 -0.232976 0.613615 0.474785 
2 1 2 7.41772 16.9221 -3.85636 -0.0855354 0.355772 -1.38822 
1 1 1 8.21268 16.6675 -3.31916 0.00357444 -1.46934 1.30348 
ITEM: TIMESTEP
22000
ITEM: NUMBER OF ATOMS
10
ITEM: BOX BOUNDS pp pp pp
-2.5000000000000000e+01 2.5000000000000000e+01
-2.5000000000000000e+01 2.5000000000000000e+01
-2.5000000000000000e+01 2.5000000000000000e+01
ITEM: ATOMS id mol type x y z vx vy vz 
10 1 10 6.98881 15.4124 -9.16964 -1.20299 0.444699 0.891091 
9 1 9 6.94185 16.027 -8.41857 -0.632719 -1.10019 0.49495 
8 1 8 6.89138 16.6398 -7.67522 -0.381596 -0.251961 0.60675 
7 1 7 6.81931 17.2531 -6.98585 -0.202737 0.779202 -1.53423 
6 1 6 6.7475 17.8918 -6.27596 1.25083 0.601484 -0.378119 
5 1 5 6.64527 18.2423 -5.3911 1.43284 0.153929 -0.512289 
3 1 3 6.62484 16.8667 -4.01096 -0.253582 0.45665 0.108403 
4 1 4 6.62652 17.5574 -4.72082 -0.317306 -1.03774 -0.847449 
2 1 2 6.6542 16.1835 -3.28884 0.373667 0.683295 -0.121184 
1 1 1 6.70704 15.5368 -2.56728 -0.0881759 -0.310324 0.0612156 
ITEM: TIMESTEP
23000
ITEM: NUMBER OF ATOMS
10
ITEM: BOX BOUNDS pp pp pp
-2.5000000000000000e+01 2.5000000000000000e+01
-2.5000000000000000e+01 2.5000000000000000e+01
-2.5000000000000000e+01 2.5000000000000000e+01
ITEM: ATOMS id mol type x y z vx vy vz 
10 1 10 8.30964 13.9599 -8.69371 0.0757823 0.38437 -0.513203 
9 1 9 7.97148 14.6579 -8.10587 0.275089 -0.229381 0.597165 
8 1 8 7.65102 15.389 -7.51858 -0.481264 -1.32013 1.85689 
7 1 7 7.33135 16.1253 -6.91573 -0.226386 0.207615 0.947765 
6 1 6 7.01592 16.8409 -6.32189 0.603612 -0.477808 -0.185313 
5 1 5 7.07891 17.6968 -5.68462 0.807535 -0.016692 0.320916 
4 1 4 6.46008 17.9157 -4.92242 -0.0712329 -0.546183 0.0838986 
3 1 3 5.84707 18.1223 -4.19148 0.382429 -0.220538 -0.497347 
2 1 2 5.27156 18.3391 -3.44369 -0.859248 0.328244 0.0109921 
1 1 1 4.70968 18.564 -2.70627 -0.760411 0.517867 1.39507 
ITEM: TIMESTEP
24000
ITEM: NUMBER OF ATOMS
10
ITEM: BOX BOUNDS pp pp pp
-2.5000000000000000e+01 2.5000000000000000e+01
-2.5000000000000000e+01 2.5000000000000000e+01
-2.5000000000000000e+01 2.5000000000000000e+01
ITEM: ATOMS id mol type x y z vx vy vz 
10 1 10 9.08626 13.6476 -7.0664 -1.10982 -0.851231 0.862106 
9 1 9 8.66298 14.4815 -6.80809 0.708942 0.138754 -0.0777895 
8 1 8 8.27403 15.2877 -6.54309 -0.285714 -1.54634 1.25823 
7 1 7 7.85945 16.1408 -6.27579 -0.287178 0.069681 1.12133 
6 1 6 7.46071 17.0103 -6.03415 -0.0650902 -0.919987 -0.0924327 
5 1 5 6.49666 16.8319 -5.83219 -1.10675 -0.548272 0.235644 
4 1 4 5.87709 17.5339 -5.48748 -0.447605 0.418298 -0.00616681 
3 1 3 5.26029 18.2339 -5.13098 0.380634 -0.737853 0.139706 
2 1 2 4.65146 18.8888 -4.82769 -0.156854 0.221976 0.372743 
1 1 1 4.01777 19.5544 -4.4984 -0.227222 0.272043 -0.454401 
ITEM: TIMESTEP
25000
ITEM: NUMBER OF ATOMS
10
ITEM: BOX BOUNDS pp pp pp
-2.5000000000000000e+01 2.5000000000000000e+01
-2.5000000000000000e+01 2.5000000000000000e+01
-2.5000000000000000e+01 2.5000000000000000e+01
ITEM: ATOMS id mol type x y z vx vy vz 
10 1 10 8.21139 13.9307 -6.45855 -0.296324 0.193897 -0.400987 
9 1 9 7.55272 14.6968 -6.38929 -0.551535 -0.683995 0.225415 
8 1 8 6.91007 15.4232 -6.2925 0.895344 0.00569752 0.159994 
7 1 7 6.26426 16.1103 -6.24777 -0.291584 -1.02946 0.581141 
5 1 5 6.17849 17.091 -6.95865 -0.0790154 -0.315732 -0.319041 
6 1 6 5.60318 16.803 -6.15504 0.50335 0.588994 -0.230166 
4 1 4 6.40546 17.5883 -6.17936 -0.0545799 0.874509 1.25692 
3 1 3 6.63537 18.1462 -5.37837 -0.748019 0.52815 -0.0325925 
2 1 2 6.8487 18.6538 -4.61824 1.75603 0.532709 0.835986 
1 1 1 7.03705 19.1675 -3.82648 -0.254814 -0.801361 -0.527981 
ITEM: TIMESTEP
26000
ITEM: NUMBER OF ATOMS
10
ITEM: BOX BOUNDS pp pp pp
-2.5000000000000000e+01 2.5000000000000000e+01
-2.5000000000000000e+01 2.5000000000000000e+01
-2.5000000000000000e+01 2.5000000000000000e+01
ITEM: ATOMS id mol type x y z vx vy vz 
5 1 5 5.97111 17.6262 -6.45559 0.982118 1.2139 0.561606 
10 1 10 8.19919 13.5408 -7.25878 -0.81862 1.31949 -0.907535 
9 1 9 7.61401 14.3255 -7.13564 -0.531946 -0.0742821 0.230776 
8 1 8 7.06496 15.0843 -6.96549 0.301352 -0.028142 -0.334854 
7 1 7 6.50878 15.8612 -6.79347 -0.556085 -0.39605 0.773993 
6 1 6 5.96272 16.6478 -6.6426 -0.0703379 -0.308138 1.5158 
4 1 4 6.22403 18.0441 -5.60359 0.465342 -1.72222 -0.415929 
3 1 3 6.45785 18.4163 -4.76783 -0.188204 0.100572 -0.496839 
2 1 2 6.70488 18.8247 -3.88884 -0.190379 1.053 -0.400188 
1 1 1 6.93919 19.24 -2.99241 -1.55066 -0.00954073 1.86116 
ITEM: TIMESTEP
27000
ITEM: NUMBER OF ATOMS
10
ITEM: BOX BOUNDS pp pp pp
-2.5000000000000000e+01 2.5000000000000000e+01
-2.5000000000000000e+01 2.5000000000000000e+01
-2.5000000000000000e+01 2.5000000000000000e+01
ITEM: ATOMS id mol type x y z vx vy vz 
10 1 10 6.41938 13.0682 -6.63567 0.585142 0.893037 -0.575322 
9 1 9 6.59544 14.0412 -6.73542 0.812593 1.14494 -0.0754881 
8 1 8 6.76284 15.0271 -6.80697 -0.0052373 0.0773625 1.15149 
7 1 7 6.91276 15.9769 -6.90914 -0.342449 -0.0267184 0.946736 
6 1 6 7.02403 16.9653 -6.96464 -0.131885 0.156884 -0.739603 
5 1 5 6.51918 17.8893 -6.71304 -0.492153 -0.122416 -0.136253 
4 1 4 6.66865 18.2227 -5.81345 0.0610992 0.510272 -0.913491 
3 1 3 6.79855 18.5028 -4.89854 0.712871 0.162949 -0.619181 
2 1 2 6.90787 18.793 -3.96748 0.255963 -0.589203 0.498398 
1 1 1 7.038 19.1243 -3.05989 0.313593 0.286305 0.429855 
ITEM: TIMESTEP
28000
ITEM: NUMBER OF ATOMS
10
ITEM: BOX BOUNDS pp pp pp
-2.5000000000000000e+01 2.5000000000000000e+01
-2.5000000000000000e+01 2.5000000000000000e+01
-2.5000000000000000e+01 2.5000000000000000e+01
ITEM: ATOMS id mol type x y z vx vy vz 
10 1 10 6.20421 13.4371 -7.07071 1.10838 0.669104 -0.0956408 
9 1 9 6.33371 14.4368 -7.09401 0.850174 -1.01725 -1.00624 
8 1 8 6.47758 15.3897 -7.13897 -0.615996 0.190179 -0.0312481 
7 1 7 6.64639 16.3517 -7.19218 0.718213 -0.384514 0.0153612 
6 1 6 6.80805 17.3375 -7.24863 -0.472102 0.0416312 0.844516 
5 1 5 6.65877 17.5843 -6.42175 -0.425434 0.985806 -0.437843 
4 1 4 6.8652 17.8413 -5.46742 0.64328 0.748299 1.49005 
3 1 3 7.03803 18.133 -4.53321 -0.395737 -0.383517 1.42682 
2 1 2 7.22586 18.4061 -3.6142 0.191703 -0.202224 0.782331 
1 1 1 7.38892 18.6934 -2.72317 -0.0560563 -0.26355 -0.37034 
ITEM: TIMESTEP
29000
ITEM: NUMBER OF ATOMS
10
ITEM: BOX BOUNDS pp pp pp
-2.5000000000000000e+01 2.5000000000000000e+01
-2.5000000000000000e+01 2.5000000000000000e+01
-2.5000000000000000e+01 2.5000000000000000e+01
ITEM: ATOMS id mol type x y z vx vy vz 
10 1 10 6.56569 13.0182 -7.82981 -0.853357 -0.165501 -0.0383994 
9 1 9 6.59479 13.8379 -7.34162 0.555943 0.338217 -0.253342 
8 1 8 6.67251 14.6887 -6.87682 0.540048 0.572172 -1.19547 
7 1 7 6.78522 15.5854 -6.38857 1.12668 -0.272491 0.841303 
6 1 6 6.88922 16.4384 -5.92171 -0.0569975 0.523047 -1.06319 
5 1 5 6.97892 16.8342 -4.96914 -0.196416 0.0637778 -0.388856 
4 1 4 6.91766 17.8126 -4.88671 0.865791 0.377555 -0.386511 
3 1 3 6.84866 18.7871 -4.8487 1.54506 0.25215 -0.11551 
2 1 2 6.73849 19.826 -4.7629 -0.174829 0.173096 -0.402803 
1 1 1 6.65555 20.7824 -4.67827 -0.666309 -0.745525 -1.18285 
ITEM: TIMESTEP
30000
ITEM: NUMBER OF ATOMS
10
ITEM: BOX BOUNDS pp pp pp
-2.5000000000000000e+01 2.5000000000000000e+01
-2.5000000000000000e+01 2.5000000000000000e+01
-2.5000000000000000e+01 2.5000000000000000e+01
ITEM: ATOMS id mol type x y z vx vy vz 
10 1 10 6.5854 13.1192 -7.58984 -0.96233 0.426753 0.434436 
9 1 9 6.50506 14.0033 -7.18038 -0.792436 0.330008 0.312 
8 1 8 6.39756 14.9171 -6.73586 -0.0100285 -0.90864 0.901307 
7 1 7 6.30358 15.7668 -6.31562 1.12496 0.000535615 0.353257 
6 1 6 6.22948 16.644 -5.89928 -0.352839 0.340576 0.214602 
5 1 5 6.98769 16.674 -5.12022 0.708957 -0.806443 -0.271342 
4 1 4 7.02937 17.6197 -5.03162 -0.0177412 -0.269911 -0.519968 
3 1 3 7.11439 18.6322 -4.956 -0.170744 -1.23805 0.496798 
2 1 2 7.19625 19.6109 -4.87485 -0.559872 0.592585 -0.508302 
1 1 1 7.29793 20.6236 -4.80057 1.19738 0.178292 0.0968894 
ITEM: TIMESTEP
31000
ITEM: NUMBER OF ATOMS
10
ITEM: BOX BOUNDS pp pp pp
-2.5000000000000000e+01 2.5000000000000000e+01
-2.5000000000000000e+01 2.5000000000000000e+01
-2.5000000000000000e+01 2.5000000000000000e+01
ITEM: ATOMS id mol type x y z vx vy vz 
10 1 10 7.60023 12.5089 -6.63651 -0.00475211 -0.0809818 0.499957 
9 1 9 7.34262 13.4415 -6.49152 1.88656 -0.254066 -0.199699 
8 1 8 7.10421 14.3577 -6.3676 -0.137423 -0.659053 1.0945 
7 1 7 6.87156 15.2823 -6.2555 -0.43748 0.366865 -0.373559 
6 1 6 6.63812 16.2967 -6.11347 -0.674953 -0.364434 -1.00757 
5 1 5 6.47918 17.2771 -6.02547 0.713588 -1.36507 0.334641 
4 1 4 6.45888 18.2382 -5.66107 -0.731015 -0.27416 -0.0412296 
3 1 3 6.42628 19.1481 -5.31293 0.356232 0.0463262 -0.338903 
2 1 2 6.38672 20.066 -4.98553 -0.391478 -0.12726 -1.49829 
1 1 1 6.33893 20.9943 -4.65465 -0.952664 0.444721 0.769508 
ITEM: TIMESTEP
32000
ITEM: NUMBER OF ATOMS
10
ITEM: BOX BOUNDS pp pp pp
-2.5000000000000000e+01 2.5000000000000000e+01
-2.5000000000000000e+01 2.5000000000000000e+01
-2.5000000000000000e+01 2.5000000000000000e+01
ITEM: ATOMS id mol type x y z vx vy vz 
10 1 10 6.28056 12.9412 -6.905 -0.486061 -0.902839 0.319133 
9 1 9 6.67883 13.8046 -6.73972 1.07998 -0.510162 1.44263 
8 1 8 7.06239 14.677 -6.56662 0.23983 0.334652 0.689139 
7 1 7 7.42298 15.5765 -6.38908 -0.976417 0.259007 -0.309956 
6 1 6 7.78653 16.4682 -6.26749 -0.452802 -0.355629 0.300731 
5 1 5 7.35858 17.1661 -5.63983 -0.694044 -0.12216 -0.278593 
4 1 4 6.92763 18.0102 -5.41011 0.812787 1.04235 1.19499 
3 1 3 6.47903 18.8293 -5.13033 0.134089 -0.146641 -1.74225 
2 1 2 6.03862 19.6373 -4.84946 0.37485 0.0124219 0.38486 
1 1 1 5.61156 20.5004 -4.6066 -0.493207 0.0619472 0.271633 
ITEM: TIMESTEP
33000
ITEM: NUMBER OF ATOMS
10
ITEM: BOX BOUNDS pp pp pp
-2.5000000000000000e+01 2.5000000000000000e+01
-2.5000000000000000e+01 2.5000000000000000e+01
-2.5000000000000000e+01 2.5000000000000000e+01
ITEM: ATOMS id mol type x y z vx vy vz 
10 1 10 7.37286 13.7146 -7.78447 -0.527294 -0.42793 0.0549722 
9 1 9 7.41954 14.5224 -7.24229 -0.313655 0.428919 -1.11034 
8 1 8 7.46985 15.3409 -6.71603 -0.134428 0.674075 1.41027 
7 1 7 7.51197 16.1816 -6.19747 -0.222909 0.0527638 -0.205583 
6 1 6 7.57015 16.9925 -5.66669 0.597823 0.365993 0.472863 
5 1 5 7.96464 17.6958 -5.12949 -0.00903594 1.26251 2.05912 
4 1 4 7.01413 17.9266 -5.0558 0.687199 0.87715 0.569461 
3 1 3 6.06402 18.1862 -4.96948 0.498123 -1.94277 -0.873521 
2 1 2 5.11929 18.4087 -4.8928 1.03425 -0.203503 0.2909 
1 1 1 4.14026 18.6414 -4.84972 -0.453356 -0.689628 -1.11429 
ITEM: TIMESTEP
34000
ITEM: NUMBER OF ATOMS
10
ITEM: BOX BOUNDS pp pp pp
-2.5000000000000000e+01 2.5000000000000000e+01
-2.5000000000000000e+01 2.5000000000000000e+01
-2.5000000000000000e+01 2.5000000000000000e+01
ITEM: ATOMS id mol type x y z vx vy vz 
10 1 10 6.54642 15.2255 -8.15176 0.196327 0.198749 -0.128678 
9 1 9 6.93582 15.5816 -7.34199 0.202346 -0.300078 0.33997 
8 1 8 7.31442 15.9242 -6.49522 0.194008 0.120586 -0.157878 
7 1 7 7.66858 16.2721 -5.67165 0.0586555 -0.0397444 -0.263907 
6 1 6 8.05452 16.5983 -4.85751 0.805096 -0.339298 0.251959 
4 1 4 7.03767 17.4181 -4.66619 -1.40519 -1.56731 1.1227 
5 1 5 7.81879 17.2118 -4.16793 -0.361857 -0.276755 0.737061 
3 1 3 6.22973 17.6262 -5.19754 1.19002 0.455222 0.843763 
1 1 1 4.61984 17.9404 -6.23431 0.23941 1.02792 0.511699 
2 1 2 5.42092 17.8129 -5.72012 -0.735352 0.101786 -0.837998 
ITEM: TIMESTEP
35000
ITEM: NUMBER OF ATOMS
10
ITEM: BOX BOUNDS pp pp pp
-2.5000000000000000e+01 2.5000000000000000e+01
-2.5000000000000000e+01 2.5000000000000000e+01
-2.5000000000000000e+01 2.5000000000000000e+01
ITEM: ATOMS id mol type x y z vx vy vz 
10 1 10 8.09147 16.4788 -8.96241 1.40875 0.647817 0.0491113 