ITEM: TIMESTEP
0
ITEM: NUMBER OF ATOMS
10
ITEM: BOX BOUNDS pp pp pp
-2.5000000000000000e+01 2.5000000000000000e+01
-2.5000000000000000e+01 2.5000000000000000e+01
-2.5000000000000000e+01 2.5000000000000000e+01
ITEM: ATOMS id mol type x y z vx vy vz 
8 1 8 4.37917 17.2388 -6.13967 0 0 0 
7 1 7 5.33337 17.0477 -6.02397 0 0 0 
6 1 6 6.28757 16.8566 -5.90827 0 0 0 
5 1 5 7.24177 16.6655 -5.79257 0 0 0 
10 1 10 2.47077 17.621 -6.37107 0 0 0 
9 1 9 3.42497 17.4299 -6.25537 0 0 0 
4 1 4 8.19597 16.4744 -5.67687 0 0 0 
3 1 3 9.15017 16.2834 -5.56117 0 0 0 
2 1 2 10.1044 16.0923 -5.44547 0 0 0 
1 1 1 11.0586 15.9012 -5.32977 0 0 0 
ITEM: TIMESTEP
1000
ITEM: NUMBER OF ATOMS
10
ITEM: BOX BOUNDS pp pp pp
-1.1479305041073703e+01 1.1479305041073703e+01
-1.1479305041073703e+01 1.1479305041073703e+01
-1.1479305041073703e+01 1.1479305041073703e+01
ITEM: ATOMS id mol type x y z vx vy vz 
8 1 8 4.80292 -5.77024 -7.01734 0.500812 0.388183 -1.27207 
7 1 7 5.48917 -6.08492 -6.38266 0.535779 0.347258 -0.283713 
6 1 6 6.15608 -6.38374 -5.77304 -1.1453 0.38966 0.160446 
5 1 5 7.18584 -6.26882 -5.88031 -0.565417 -1.03507 0.0908487 
10 1 10 3.38578 -5.20822 -8.26447 -0.854174 -0.685851 -0.827799 
9 1 9 4.08139 -5.48701 -7.68292 0.648376 0.286696 1.30587 
4 1 4 7.96902 -6.43562 -5.27772 0.0367475 0.536749 0.451704 
3 1 3 8.74571 -6.62896 -4.67457 0.423153 -0.429394 0.180127 
2 1 2 9.51707 -6.7859 -4.07318 -0.0967633 0.0943277 0.477719 
1 1 1 10.3137 -6.92182 -3.47803 0.613755 1.01308 0.496444 
ITEM: TIMESTEP
2000
ITEM: NUMBER OF ATOMS
10
ITEM: BOX BOUNDS pp pp pp
-8.7541263545734580e+00 8.7541263545734580e+00
-8.7541263545734580e+00 8.7541263545734580e+00
-8.7541263545734580e+00 8.7541263545734580e+00
ITEM: ATOMS id mol type x y z vx vy vz 
9 1 9 4.55036 0.13364 -6.72098 0.273778 0.432062 -0.201909 
10 1 10 3.99395 0.856029 -7.07948 -0.00738575 0.755648 -0.532455 
8 1 8 5.06881 -0.583101 -6.38516 0.151464 -0.963966 0.0535609 
7 1 7 5.62119 -1.30793 -6.00131 -0.241391 0.325712 0.267746 
6 1 6 6.19541 -2.01204 -5.61079 -1.04953 -0.0792219 1.46186 
5 1 5 6.67343 -1.21813 -6.18716 -0.208288 0.271511 0.62545 
4 1 4 7.56229 -1.05715 -5.76155 -1.16675 -1.27505 0.241959 
3 1 3 8.47076 -0.90861 -5.33908 -0.264023 0.754853 0.0528213 
2 1 2 -8.18484 -0.755693 -4.93731 -0.444168 -0.151842 -0.68149 
1 1 1 -7.32114 -0.618679 -4.48141 0.55351 0.131091 0.324099 
ITEM: TIMESTEP
3000
ITEM: NUMBER OF ATOMS
10
ITEM: BOX BOUNDS pp pp pp
-7.3467564140221997e+00 7.3467564140221997e+00
-7.3467564140221997e+00 7.3467564140221997e+00
-7.3467564140221997e+00 7.3467564140221997e+00
ITEM: ATOMS id mol type x y z vx vy vz 
9 1 9 4.81156 2.69137 7.01506 -1.49529 -0.0633988 0.0964622 
10 1 10 4.3388 3.07045 6.27075 0.236378 -0.0621124 -0.57949 
7 1 7 5.80186 1.96909 -6.12573 -0.715085 1.15952 -1.18183 
5 1 5 6.31953 2.11482 -4.6156 -1.11067 0.0760357 0.198815 
8 1 8 5.29525 2.33823 -6.91685 0.0361023 -0.419127 0.614475 
4 1 4 7.25553 1.96296 -4.71116 0.0147964 -0.80737 0.141801 
6 1 6 6.2942 1.58792 -5.3456 0.392165 0.723404 -1.17036 
3 1 3 -6.47969 1.80665 -4.82984 -0.915806 0.689086 0.114782 
2 1 2 -5.52262 1.65635 -4.90086 0.663191 -0.721308 -0.880914 
1 1 1 -4.54824 1.47789 -4.9574 -0.11001 0.585463 0.341939 
ITEM: TIMESTEP
4000
ITEM: NUMBER OF ATOMS
10
ITEM: BOX BOUNDS pp pp pp
-6.4483309085091634e+00 6.4483309085091634e+00
-6.4483309085091634e+00 6.4483309085091634e+00
-6.4483309085091634e+00 6.4483309085091634e+00
ITEM: ATOMS id mol type x y z vx vy vz 
8 1 8 4.63094 4.33726 6.03278 -0.235161 0.267301 0.300617 
7 1 7 5.55666 4.39091 6.39088 0.136944 0.867436 -0.118814 
6 1 6 6.48496 4.44789 -6.14704 0.916782 0.339202 -0.221731 
3 1 3 -4.00733 3.39976 -4.8739 -0.942361 1.08654 -0.649502 
2 1 2 -3.15233 3.14766 -4.46275 -1.15235 0.158483 0.780049 
1 1 1 -2.31783 2.87977 -4.05333 0.161899 0.492427 0.194724 
5 1 5 -5.74245 3.88594 -5.62081 1.0711 0.236595 -0.225544 
4 1 4 -4.82397 3.62699 -5.23744 -1.39375 0.082423 -0.109126 
10 1 10 2.82683 4.23601 5.35301 -1.21751 -0.914555 0.621367 
9 1 9 3.70791 4.29205 5.70102 0.137415 0.123848 -0.118388 
ITEM: TIMESTEP
5000
ITEM: NUMBER OF ATOMS
10
ITEM: BOX BOUNDS pp pp pp
-5.8111104550212458e+00 5.8111104550212458e+00
-5.8111104550212458e+00 5.8111104550212458e+00
-5.8111104550212458e+00 5.8111104550212458e+00
ITEM: ATOMS id mol type x y z vx vy vz 
5 1 5 -4.4814 4.44271 5.11336 0.269468 -0.362846 0.0642277 
6 1 6 -4.49351 5.2849 4.75665 -2.30967 0.750864 -0.663844 
4 1 4 -3.89183 4.5271 -5.72855 -0.30117 -1.71539 0.841825 
3 1 3 -3.30461 4.59636 -4.9219 0.0436765 0.186886 0.17918 
2 1 2 -2.70852 4.65878 -4.09898 -0.28717 -0.404158 0.856028 
1 1 1 -2.12952 4.75081 -3.3338 -0.314395 -0.00816315 -0.340497 
10 1 10 3.28927 -5.5617 4.88005 -0.340645 -1.07897 -0.12408 
9 1 9 4.25196 -5.73376 4.88973 -0.666962 0.342539 -0.845388 
8 1 8 5.20569 5.68839 4.86065 -0.218765 0.509728 0.827707 
7 1 7 -5.44636 5.49062 4.81188 -1.19818 -0.0141886 -0.0156374 
ITEM: TIMESTEP
6000
ITEM: NUMBER OF ATOMS
10
ITEM: BOX BOUNDS pp pp pp
-5.3292464427514723e+00 5.3292464427514723e+00
-5.3292464427514723e+00 5.3292464427514723e+00
-5.3292464427514723e+00 5.3292464427514723e+00
ITEM: ATOMS id mol type x y z vx vy vz 
4 1 4 -3.16564 -5.18087 -5.04591 0.682717 0.890198 0.219331 
3 1 3 -2.22621 -5.13918 -4.74123 0.886537 0.593124 1.04298 
2 1 2 -1.32984 -5.08767 -4.4351 0.147999 -0.824249 -0.311267 
1 1 1 -0.41967 -5.03236 -4.10296 -0.833337 -0.704997 0.826603 
10 1 10 3.49013 -3.25031 2.86401 -0.544877 1.61802 0.547124 
9 1 9 4.32735 -3.60444 3.2746 1.72053 1.13473 -0.987359 
7 1 7 -4.74958 -4.33947 4.0911 0.320558 -0.699392 -0.325497 
6 1 6 -3.90707 -4.74048 4.55829 1.28878 0.578707 -0.472283 
8 1 8 5.12719 -3.97594 3.67933 0.125338 -1.72429 0.461856 
5 1 5 -4.10941 5.45022 -5.35391 1.85648 0.20314 0.361955 
ITEM: TIMESTEP
7000
ITEM: NUMBER OF ATOMS
10
ITEM: BOX BOUNDS pp pp pp
-4.9475191866644090e+00 4.9475191866644090e+00
-4.9475191866644090e+00 4.9475191866644090e+00
-4.9475191866644090e+00 4.9475191866644090e+00
ITEM: ATOMS id mol type x y z vx vy vz 
4 1 4 -2.36461 -4.1544 4.55405 1.1639 -0.731455 -0.772721 
3 1 3 -1.60889 -4.07488 -4.68384 0.405128 -0.839671 0.298028 
2 1 2 -0.862242 -3.9823 -4.02461 0.276887 0.996607 0.965489 
1 1 1 -0.175398 -3.90861 -3.37978 -1.46194 -0.420436 0.773686 
10 1 10 3.90498 -0.630999 2.34848 0.550271 0.642724 -0.644813 
8 1 8 -4.64573 -1.9846 2.88198 0.730366 0.796893 -0.460861 
9 1 9 4.5859 -1.30508 2.61928 -0.642304 -1.07328 0.548285 
6 1 6 -3.31479 -3.34033 3.41205 -0.471949 -0.709203 0.415096 
7 1 7 -3.99079 -2.65785 3.13652 0.109144 0.391084 -0.149747 
5 1 5 -3.04201 -4.25084 3.89691 -0.0424658 -0.154756 0.605299 
ITEM: TIMESTEP
8000
ITEM: NUMBER OF ATOMS
10
ITEM: BOX BOUNDS pp pp pp
-4.6359763558838951e+00 4.6359763558838951e+00
-4.6359763558838951e+00 4.6359763558838951e+00
-4.6359763558838951e+00 4.6359763558838951e+00
ITEM: ATOMS id mol type x y z vx vy vz 
3 1 3 -1.73787 -2.66142 -4.48287 -0.0348793 1.05918 0.657004 
2 1 2 -0.974986 -2.57223 -3.87295 0.51554 -1.43514 -0.802462 
1 1 1 -0.221394 -2.51755 -3.25361 -0.124596 0.91239 0.68543 
10 1 10 -4.0753 0.519719 0.938013 0.369249 0.2622 -0.207038 
7 1 7 -2.91604 -1.62684 2.61386 0.0172142 -0.618859 -0.355796 
8 1 8 -3.28673 -0.892305 2.06009 0.634315 0.195814 0.154572 
9 1 9 -3.67194 -0.210653 1.4924 -0.233008 -0.938676 -0.205158 
5 1 5 -3.1896 -2.80214 3.58236 -0.739997 -0.264229 -0.0999421 
6 1 6 -2.5212 -2.32141 3.14797 -0.448204 -1.14976 -0.308958 
4 1 4 -2.47775 -2.74337 4.17417 -0.193928 -0.701378 -0.217718 
ITEM: TIMESTEP
9000
ITEM: NUMBER OF ATOMS
10
ITEM: BOX BOUNDS pp pp pp
-4.3761835394857647e+00 4.3761835394857647e+00
-4.3761835394857647e+00 4.3761835394857647e+00
-4.3761835394857647e+00 4.3761835394857647e+00
ITEM: ATOMS id mol type x y z vx vy vz 
3 1 3 -1.24973 -1.29645 -4.10726 -0.800094 -0.256024 -0.449318 
2 1 2 -0.818156 -1.39836 -3.20439 1.2708 -1.47048 0.0333785 
1 1 1 -0.385128 -1.49144 -2.30889 0.406598 -0.333502 0.142117 
9 1 9 -3.02467 0.515711 0.596127 -0.138574 -0.514071 -0.923075 
10 1 10 -3.32823 1.24787 0.026266 0.741099 -0.228675 1.29879 
8 1 8 -2.73825 -0.173557 1.1561 1.17381 -0.427646 0.847957 
7 1 7 -2.45058 -0.907816 1.70695 -0.312372 0.165155 -0.677425 
5 1 5 -2.07636 -1.0866 2.89914 -0.211953 0.755634 -0.538647 
6 1 6 -2.13661 -1.6726 2.24445 -0.183854 0.597814 -0.183804 
4 1 4 -1.66924 -1.17323 3.75383 -0.667355 -0.00399671 -0.593541 
ITEM: TIMESTEP
10000
ITEM: NUMBER OF ATOMS
10
ITEM: BOX BOUNDS pp pp pp
-4.1542474469812927e+00 4.1542474469812927e+00
-4.1542474469812927e+00 4.1542474469812927e+00
-4.1542474469812927e+00 4.1542474469812927e+00
ITEM: ATOMS id mol type x y z vx vy vz 
2 1 2 -0.0856049 -0.873565 -3.63804 -0.155959 0.431796 0.677839 
1 1 1 0.635754 -0.938055 -3.0296 0.143591 -0.685013 -0.777316 
10 1 10 -1.71493 2.74932 -0.0890216 -0.20658 0.769942 -1.4709 
9 1 9 -1.97773 1.92371 0.387071 -0.155939 -0.00592714 0.876993 
7 1 7 -2.52746 0.241663 1.37229 0.571342 -1.42389 -0.0854124 
8 1 8 -2.27094 1.08671 0.864457 0.3817 1.51057 -0.316891 
6 1 6 -2.7739 -0.572622 1.87839 0.181588 0.251153 -0.846989 
5 1 5 -2.31729 -0.642497 2.79836 -1.07184 -0.240615 1.13934 
3 1 3 -0.836875 -0.812168 4.02654 0.126157 0.063596 -0.346905 
4 1 4 -1.56928 -0.721536 3.39328 -0.156252 0.488144 0.08072 
ITEM: TIMESTEP
11000
ITEM: NUMBER OF ATOMS
10
ITEM: BOX BOUNDS pp pp pp
-3.9618900876003935e+00 3.9618900876003935e+00
-3.9618900876003935e+00 3.9618900876003935e+00
-3.9618900876003935e+00 3.9618900876003935e+00
ITEM: ATOMS id mol type x y z vx vy vz 
2 1 2 -0.21297 0.0361951 3.75507 -0.188408 -0.606552 -0.0833017 
1 1 1 0.57876 -0.110623 -3.55665 -0.394578 -0.186499 -1.05378 
10 1 10 -0.203277 2.17015 -0.562603 -0.634916 -1.26246 -0.0666194 
9 1 9 -0.755807 1.91755 0.232439 0.832399 -1.14142 -0.308396 
7 1 7 -1.88257 1.44822 1.69979 0.426311 -1.01641 0.29995 
8 1 8 -1.31591 1.70525 0.96125 0.322585 0.732274 0.371722 
6 1 6 -2.49726 1.20497 2.48971 1.15428 0.857663 -0.418184 
5 1 5 -2.52532 0.327789 2.01477 -0.253406 0.0518661 -0.120915 
3 1 3 -1.01074 0.172636 3.17 0.417268 0.566305 1.17804 
4 1 4 -1.766 0.263108 2.60601 0.34246 0.167855 0.46588 
ITEM: TIMESTEP
12000
ITEM: NUMBER OF ATOMS
10
ITEM: BOX BOUNDS pp pp pp
-3.7938817204756021e+00 3.7938817204756021e+00
-3.7938817204756021e+00 3.7938817204756021e+00
-3.7938817204756021e+00 3.7938817204756021e+00
ITEM: ATOMS id mol type x y z vx vy vz 
1 1 1 -0.566269 -0.742437 -3.08931 -1.02416 0.125436 -0.506447 
10 1 10 0.676013 2.15673 -1.2633 -0.62938 0.372584 -0.953996 
9 1 9 0.0641799 2.35996 -0.492476 -1.21626 0.989634 1.18597 
8 1 8 -0.520391 2.56128 0.243597 -0.394821 0.459863 0.327447 
5 1 5 -1.74148 1.94573 1.86584 1.58719 -0.0732234 0.00972321 
7 1 7 -1.07774 2.75636 1.02377 0.752215 0.336576 -1.34677 
4 1 4 -1.44425 1.29242 2.55165 0.387506 0.665069 1.17804 
6 1 6 -1.61415 2.96088 1.82857 0.553125 -0.0637155 0.117675 
3 1 3 -1.15092 0.618767 3.23544 0.239692 0.4988 -0.567327 
2 1 2 -0.85591 -0.0541011 -3.70591 -0.0131633 -0.48243 0.452895 
ITEM: TIMESTEP
13000
ITEM: NUMBER OF ATOMS
10
ITEM: BOX BOUNDS pp pp pp
-3.6442681723320614e+00 3.6442681723320614e+00
-3.6442681723320614e+00 3.6442681723320614e+00
-3.6442681723320614e+00 3.6442681723320614e+00
ITEM: ATOMS id mol type x y z vx vy vz 
1 1 1 -0.327896 -0.993618 -3.39395 -0.477055 0.188976 0.542558 
2 1 2 -0.545816 -0.329397 3.24311 -0.372805 -0.21305 0.171045 
10 1 10 0.738315 -1.843 -0.701339 -0.583933 -0.226897 0.203091 
9 1 9 0.239145 -2.54696 -0.179373 -0.391334 0.132953 -0.225306 
8 1 8 -0.241083 -3.26827 0.317302 0.344812 -1.08859 0.482202 
7 1 7 -0.749139 3.27271 0.803739 -0.817634 -0.854508 -0.117096 
5 1 5 -1.27286 1.70581 1.22304 -0.180005 -1.10854 -0.567851 
6 1 6 -1.26335 2.56855 1.29608 1.00528 0.610014 -0.439604 
4 1 4 -1.01956 1.04172 1.89172 0.592957 0.529654 -0.420981 
3 1 3 -0.796411 0.366985 2.59225 0.264531 0.296122 -0.113377 
ITEM: TIMESTEP
14000
ITEM: NUMBER OF ATOMS
10
ITEM: BOX BOUNDS pp pp pp
-3.5105638563200712e+00 3.5105638563200712e+00
-3.5105638563200712e+00 3.5105638563200712e+00
-3.5105638563200712e+00 3.5105638563200712e+00
ITEM: ATOMS id mol type x y z vx vy vz 
1 1 1 0.250533 0.268471 2.94447 -0.0416715 0.846174 0.720565 
10 1 10 1.94575 -2.14481 0.856981 0.588861 0.400689 0.145605 
8 1 8 0.29331 -3.16261 0.424517 -0.339658 0.542113 0.171905 
9 1 9 1.11624 -2.65213 0.635971 0.756559 0.456507 0.50592 
5 1 5 -1.85001 2.80675 0.90227 -2.35562 0.032243 0.812311 
6 1 6 -1.39377 2.91439 -0.00591792 1.3637 0.0128401 0.468468 
7 1 7 -0.542791 3.38473 0.227681 -0.653137 -0.558654 -0.723328 
4 1 4 -1.33149 2.20804 1.39526 -0.172911 0.84954 -0.512 
3 1 3 -0.778391 1.58003 1.90651 -0.255677 -1.06936 -0.507895 
2 1 2 -0.273944 0.922065 2.41929 -1.13613 -0.320514 0.0281608 
ITEM: TIMESTEP
15000
ITEM: NUMBER OF ATOMS
10
ITEM: BOX BOUNDS pp pp pp
-3.3903975010254488e+00 3.3903975010254488e+00
-3.3903975010254488e+00 3.3903975010254488e+00
-3.3903975010254488e+00 3.3903975010254488e+00
ITEM: ATOMS id mol type x y z vx vy vz 
6 1 6 -1.36011 3.24033 0.433869 -0.164185 -0.24566 0.443607 
7 1 7 -0.567964 -2.98263 0.465746 1.44927 0.14339 0.077425 
8 1 8 0.24345 -2.41111 0.476173 -0.295283 0.534452 0.135665 
9 1 9 1.03558 -1.80686 0.529924 0.194764 -0.463636 1.01928 
10 1 10 1.81718 -1.20093 0.575668 0.417453 -0.209735 1.16866 
5 1 5 -0.979645 2.77056 -0.296822 0.863082 -0.401171 -1.72187 
3 1 3 -0.263223 2.01097 1.38294 0.923709 0.874341 0.669256 
4 1 4 -0.629501 2.40118 0.533009 0.581985 -0.0726553 0.71469 
2 1 2 0.0831837 1.61643 2.19046 0.251902 -0.184991 -0.725287 
1 1 1 0.459808 1.23384 3.01274 -0.0302747 -0.978719 -0.359361 
ITEM: TIMESTEP
16000
ITEM: NUMBER OF ATOMS
10
ITEM: BOX BOUNDS pp pp pp
-3.2815868496017333e+00 3.2815868496017333e+00
-3.2815868496017333e+00 3.2815868496017333e+00
-3.2815868496017333e+00 3.2815868496017333e+00
ITEM: ATOMS id mol type x y z vx vy vz 
5 1 5 -1.32401 3.03961 0.568348 -0.635758 0.518652 0.399998 
7 1 7 -0.216108 -2.49028 -0.137497 0.220908 0.423089 -0.430485 
8 1 8 0.291986 -1.64165 -0.277738 -0.987377 0.273233 0.421429 
9 1 9 0.811796 -0.761054 -0.452358 -0.232916 -0.631369 -1.40083 
10 1 10 1.29925 0.0785293 -0.598142 -0.151672 -0.549721 0.0614866 
4 1 4 -0.587829 2.69559 1.13235 1.00122 0.588075 -0.793273 
6 1 6 -0.682527 3.24613 0.00339661 -0.377169 0.176001 -0.975877 
3 1 3 0.102589 2.33113 1.70869 -0.0124467 0.595125 -0.999681 
2 1 2 0.81883 1.98157 2.29704 1.21168 0.170266 0.055865 
1 1 1 1.50099 1.61512 2.88341 -0.347868 -0.0449329 0.567175 
ITEM: TIMESTEP
17000
ITEM: NUMBER OF ATOMS
10
ITEM: BOX BOUNDS pp pp pp
-3.1826262698367356e+00 3.1826262698367356e+00
-3.1826262698367356e+00 3.1826262698367356e+00
-3.1826262698367356e+00 3.1826262698367356e+00
ITEM: ATOMS id mol type x y z vx vy vz 
7 1 7 -0.341288 -1.21135 0.179229 1.56898 -0.754144 0.0608009 
8 1 8 0.565958 -0.850405 0.00384379 1.30088 0.260581 0.677039 
9 1 9 1.46603 -0.494622 -0.161504 0.244843 0.194551 0.837588 
10 1 10 2.34785 -0.119504 -0.324058 0.54207 1.01259 0.230046 
6 1 6 -1.20542 -1.58619 0.345501 -0.386389 -0.544299 -0.303588 
5 1 5 -0.891067 -2.42717 0.12564 0.942753 -0.242365 0.64482 
4 1 4 -0.326246 -3.11375 0.57842 -0.522441 0.42296 -0.373595 
3 1 3 0.249494 2.54898 1.00767 -0.738094 1.42841 -0.567256 
2 1 2 0.807957 1.85856 1.47632 0.205854 -0.766501 -1.46073 
1 1 1 1.32092 1.1445 1.91722 0.863754 -0.0623353 1.20387 
ITEM: TIMESTEP
18000
ITEM: NUMBER OF ATOMS
10
ITEM: BOX BOUNDS pp pp pp
-3.0918196478444364e+00 3.0918196478444364e+00
-3.0918196478444364e+00 3.0918196478444364e+00
-3.0918196478444364e+00 3.0918196478444364e+00
ITEM: ATOMS id mol type x y z vx vy vz 
9 1 9 1.89504 -0.0800946 0.0026189 0.284213 -0.840029 -0.0162678 
10 1 10 2.78908 0.347862 0.207898 0.210373 -0.349833 0.435676 
5 1 5 -0.524724 -2.3649 -0.903671 -0.199304 -0.00912627 0.83503 
4 1 4 -0.212411 -2.7098 -0.0304104 0.893901 -1.76149 -0.123595 
6 1 6 -0.640666 -1.3863 -0.548718 0.439178 0.763853 -0.0435857 
7 1 7 0.183317 -0.96246 -0.364982 -0.135738 0.356344 -0.48033 
8 1 8 1.06397 -0.517382 -0.16994 -0.715453 1.33329 -1.20817 
2 1 2 0.420015 2.77509 1.72669 0.178119 1.03315 0.540127 
3 1 3 0.116186 3.12785 0.833818 -0.325643 0.407987 -1.3441 
1 1 1 0.720511 2.42274 2.57885 0.693816 0.176029 0.433432 
ITEM: TIMESTEP
19000
ITEM: NUMBER OF ATOMS
10
ITEM: BOX BOUNDS pp pp pp
-3.0084988947762157e+00 3.0084988947762157e+00
-3.0084988947762157e+00 3.0084988947762157e+00
-3.0084988947762157e+00 3.0084988947762157e+00
ITEM: ATOMS id mol type x y z vx vy vz 
5 1 5 -0.920233 -1.27001 -0.28362 -0.712583 0.0188353 -0.543471 
4 1 4 -0.392621 -1.90009 0.274693 -0.180726 0.312533 -1.05868 
6 1 6 -0.50164 -0.557061 -0.965535 -1.41632 0.16685 -0.154054 
7 1 7 0.434587 -0.332488 -0.735472 0.712812 -0.301189 0.121764 
8 1 8 1.37677 -0.0741223 -0.494046 -0.805453 0.570702 -0.00808403 
9 1 9 2.27236 0.187033 -0.244987 2.19746 0.678629 -0.644727 
10 1 10 -2.84489 0.43477 -0.00599994 0.0725158 0.0891994 -0.376408 
3 1 3 0.162923 -2.50649 0.821851 0.521231 0.170031 1.30538 
2 1 2 0.688834 2.90373 1.36366 -1.05555 0.536955 -0.121079 
1 1 1 1.18363 2.24965 1.93519 0.495746 -0.34194 -0.309319 
ITEM: TIMESTEP
20000
ITEM: NUMBER OF ATOMS
10
ITEM: BOX BOUNDS pp pp pp
-2.9315288763850225e+00 2.9315288763850225e+00
-2.9315288763850225e+00 2.9315288763850225e+00
-2.9315288763850225e+00 2.9315288763850225e+00
ITEM: ATOMS id mol type x y z vx vy vz 
6 1 6 -0.000257844 -1.46739 -0.710885 0.793147 0.0836732 0.0899225 
7 1 7 0.603497 -0.719019 -0.889715 1.90862 -0.597672 0.127968 
8 1 8 1.20508 0.0347047 -1.0451 -0.0569735 -0.917407 -0.266936 
4 1 4 -0.118877 -1.46213 0.412561 0.0386047 1.05988 0.205158 
5 1 5 -0.813566 -1.18977 -0.213929 0.0762422 -0.599463 -0.853659 
9 1 9 1.82399 0.788738 -1.18685 -0.313241 0.440545 0.075679 
10 1 10 2.44454 1.55446 -1.34267 -1.53466 0.347619 -0.603518 
3 1 3 0.583071 -1.7094 1.05702 0.72769 0.706307 0.101492 
2 1 2 1.27524 -1.94855 1.68753 1.04743 -0.338223 -0.577989 
1 1 1 2.01342 -2.16252 2.35836 0.0387727 0.305501 -0.0426736 
ITEM: TIMESTEP
21000
ITEM: NUMBER OF ATOMS
10
ITEM: BOX BOUNDS pp pp pp
-2.8598767167230217e+00 2.8598767167230217e+00
-2.8598767167230217e+00 2.8598767167230217e+00
-2.8598767167230217e+00 2.8598767167230217e+00
ITEM: ATOMS id mol type x y z vx vy vz 
10 1 10 0.0231649 -2.81637 -1.72961 -0.402183 -0.116447 -1.60308 
6 1 6 0.713334 -0.897167 -1.27858 1.30302 -0.54928 0.338662 
7 1 7 0.539044 0.00524737 -1.35956 1.0655 0.805736 -0.10628 
8 1 8 0.368786 0.949404 -1.44809 0.148365 0.315013 0.242495 
9 1 9 0.187387 1.92391 -1.59373 -1.27961 -0.689599 -0.172761 
4 1 4 1.30086 -1.51513 0.406371 0.895068 0.917492 -0.808725 
5 1 5 0.886121 -1.27157 -0.436331 0.362648 0.173578 -0.227606 
3 1 3 1.70614 -1.75741 1.2114 0.678664 -0.219241 0.5558 
2 1 2 2.13852 -2.01768 2.05013 -0.63739 -0.470655 -1.01351 
1 1 1 2.58581 -2.30474 -2.84846 -1.83799 -0.47674 -0.530504 
ITEM: TIMESTEP
22000
ITEM: NUMBER OF ATOMS
10
ITEM: BOX BOUNDS pp pp pp
-2.7925750496944297e+00 2.7925750496944297e+00
-2.7925750496944297e+00 2.7925750496944297e+00
-2.7925750496944297e+00 2.7925750496944297e+00
ITEM: ATOMS id mol type x y z vx vy vz 
1 1 1 0.867098 2.16992 0.649374 -0.249417 -0.681197 -1.02846 
7 1 7 1.19919 0.898952 -0.786009 -0.913982 1.31122 0.35729 
8 1 8 0.603737 1.66718 -0.744336 -1.4151 1.46532 -0.078694 
9 1 9 0.0374763 2.41266 -0.727701 0.770962 0.168882 0.551933 
10 1 10 -0.561308 -2.40494 -0.723451 0.873151 -0.486318 0.9559 
6 1 6 1.78437 0.134703 -0.830487 0.273829 1.06627 -0.170137 
5 1 5 2.59184 0.124866 -0.170119 0.583789 -0.929841 0.537787 
4 1 4 2.17614 -0.769301 0.0248724 -0.327747 -0.231332 -0.591145 
3 1 3 1.76476 -1.65407 0.222319 0.0376435 -0.443059 -0.220102 
2 1 2 1.33192 -2.52361 0.432795 0.346018 -0.818198 -1.55264 
ITEM: TIMESTEP
23000
ITEM: NUMBER OF ATOMS
10
ITEM: BOX BOUNDS pp pp pp
-2.7301014003764754e+00 2.7301014003764754e+00
-2.7301014003764754e+00 2.7301014003764754e+00
-2.7301014003764754e+00 2.7301014003764754e+00
ITEM: ATOMS id mol type x y z vx vy vz 
10 1 10 0.480513 -1.34419 -1.68615 -0.508267 -1.18856 0.220869 
6 1 6 1.69901 0.442407 -0.968465 0.659944 0.741721 1.10897 
7 1 7 1.41577 1.37959 -1.17192 -0.595483 0.164516 0.799834 
8 1 8 1.10363 2.30591 -1.34734 0.5683 0.492684 0.173687 
9 1 9 0.791947 -2.25239 -1.52963 0.17158 -0.925799 0.931415 
2 1 2 1.23129 -2.40037 0.876803 -0.280838 1.00627 -0.188974 
3 1 3 1.51743 -1.52572 0.565707 -0.908039 0.572607 -0.0260418 
4 1 4 1.78259 -0.669152 0.239474 1.12822 -1.12191 -0.161562 
5 1 5 2.05129 0.198567 -0.0839443 -0.203299 -1.68211 0.747118 
1 1 1 0.971216 2.20993 1.20325 -0.291739 0.560222 0.413281 
ITEM: TIMESTEP
24000
ITEM: NUMBER OF ATOMS
10
ITEM: BOX BOUNDS pp pp pp
-2.6716327315960822e+00 2.6716327315960822e+00
-2.6716327315960822e+00 2.6716327315960822e+00
-2.6716327315960822e+00 2.6716327315960822e+00
ITEM: ATOMS id mol type x y z vx vy vz 
9 1 9 2.03737 -1.90497 -0.829397 -0.266371 0.0802482 0.0926667 
10 1 10 1.90464 -0.951976 -0.835313 0.319595 -0.709996 1.37788 
8 1 8 2.17592 2.45289 -0.821207 -0.206585 0.176093 -0.271464 
6 1 6 2.40158 0.482138 -0.752654 -0.604978 -1.24521 1.73387 
7 1 7 2.28426 1.47161 -0.806558 0.0128053 -1.15784 -0.362495 
4 1 4 1.2825 -0.21615 -0.106798 1.11491 -0.439781 -0.0677867 
5 1 5 1.87485 0.518521 -0.000503856 -2.0952 0.0989911 0.221584 
2 1 2 0.074413 -1.75271 -0.296416 -1.17483 -0.857083 0.537717 
3 1 3 0.661254 -0.977565 -0.195122 0.579374 -0.0105398 0.486134 
1 1 1 -0.48273 -2.49542 -0.427619 -0.282718 0.573863 -0.371706 
ITEM: TIMESTEP
25000
ITEM: NUMBER OF ATOMS
10
ITEM: BOX BOUNDS pp pp pp
-2.6171524879189505e+00 2.6171524879189505e+00
-2.6171524879189505e+00 2.6171524879189505e+00
-2.6171524879189505e+00 2.6171524879189505e+00
ITEM: ATOMS id mol type x y z vx vy vz 
1 1 1 0.460514 -2.53824 -0.545868 0.178988 -0.381092 -0.569244 
9 1 9 1.80941 -1.64567 -1.29804 0.656931 -1.53445 -0.0947511 
10 1 10 1.73228 -0.87282 -1.89537 -0.175664 -0.461331 1.10624 
6 1 6 2.14888 1.34472 0.507727 -0.522389 0.871801 -0.507331 
7 1 7 2.02943 2.07204 -0.109146 -0.192464 0.17644 -0.388481 
8 1 8 1.92151 -2.3962 -0.71327 1.53975 0.366638 0.820506 
2 1 2 0.802599 -1.6358 -0.536876 -0.912592 0.0252178 0.491104 
3 1 3 1.12977 -0.715656 -0.550868 -0.966439 0.159131 -0.0974052 
4 1 4 1.4597 0.179135 -0.526467 1.78479 -0.4384 0.709989 
5 1 5 1.80956 1.08729 -0.493009 -0.507384 1.1083 0.0822634 
ITEM: TIMESTEP
26000
ITEM: NUMBER OF ATOMS
10
ITEM: BOX BOUNDS pp pp pp
-2.5658700471050464e+00 2.5658700471050464e+00
-2.5658700471050464e+00 2.5658700471050464e+00
-2.5658700471050464e+00 2.5658700471050464e+00
ITEM: ATOMS id mol type x y z vx vy vz 
10 1 10 2.49207 -0.878572 -1.95237 1.30974 -0.349086 -0.116996 
9 1 9 2.30151 -1.49247 -1.16718 0.0100812 0.698332 -1.11278 
1 1 1 0.613749 -1.57879 -2.41114 -0.575649 -0.793623 0.933638 
8 1 8 2.14846 -2.11956 -0.388664 -0.0418608 -0.935449 0.581327 
2 1 2 0.872848 -0.9313 -1.69675 -0.62639 0.781094 0.432946 
3 1 3 1.11596 -0.271213 -0.998091 -0.840399 1.26686 0.894192 
4 1 4 1.35299 0.405653 -0.326076 1.10537 0.180395 1.05933 
5 1 5 1.58509 1.05883 0.304919 -0.146873 0.680048 -0.385899 
7 1 7 1.99852 2.35594 0.356946 -0.80498 0.00366358 -0.553797 
6 1 6 1.84811 1.71493 1.09156 -1.55189 -0.381785 0.655739 
ITEM: TIMESTEP
27000
ITEM: NUMBER OF ATOMS
10
ITEM: BOX BOUNDS pp pp pp
-2.5165511976587593e+00 2.5165511976587593e+00
-2.5165511976587593e+00 2.5165511976587593e+00
-2.5165511976587593e+00 2.5165511976587593e+00
ITEM: ATOMS id mol type x y z vx vy vz 
10 1 10 -1.91769 -0.00710263 -1.56764 -0.497764 -0.254484 -0.38055 
1 1 1 1.27357 -1.803 -1.85318 0.0515523 0.549935 0.420225 
2 1 2 1.12966 -0.95779 -1.34658 1.48389 -0.415848 0.582228 
9 1 9 -2.2701 -0.783941 -1.15989 -0.0690236 0.752235 -0.445005 
3 1 3 1.03172 -0.130169 -0.881192 0.635751 0.313988 -0.0646174 
8 1 8 2.40001 -1.58087 -0.751184 1.17557 0.375521 -0.134567 
4 1 4 0.949153 0.738989 -0.380561 -0.242195 1.2652 -1.16095 
5 1 5 0.887989 1.55243 0.123231 -0.0265407 -0.53089 -0.948993 
7 1 7 2.04543 -2.38616 -0.371794 -0.153243 0.0590905 0.577582 
6 1 6 1.71973 1.84299 0.0155629 -0.588286 0.38007 1.52108 
ITEM: TIMESTEP
28000
ITEM: NUMBER OF ATOMS
10
ITEM: BOX BOUNDS pp pp pp
-2.4701610058711774e+00 2.4701610058711774e+00
-2.4701610058711774e+00 2.4701610058711774e+00
-2.4701610058711774e+00 2.4701610058711774e+00
ITEM: ATOMS id mol type x y z vx vy vz 
1 1 1 0.319388 -0.681994 2.21035 1.7315 -0.110046 -0.756348 
2 1 2 0.405197 0.120236 -2.17681 0.251172 -0.935818 -1.02906 
9 1 9 -1.03798 -1.48964 -0.396893 1.05769 0.38957 0.860262 
3 1 3 0.540831 0.90903 -1.5962 0.107003 0.724157 1.27085 
10 1 10 -0.19824 -1.03655 -0.611199 -0.883211 -0.224116 1.26351 
7 1 7 2.25595 -2.44161 -0.0335011 0.397321 -0.21295 0.20809 
8 1 8 -1.83606 -1.95961 -0.203638 0.0578326 0.709075 1.25252 
4 1 4 0.702014 1.7098 -1.04861 -1.00685 0.384789 -0.422016 
5 1 5 0.846389 -2.43536 -0.473766 -0.697161 -0.264363 -1.01127 
6 1 6 1.42504 2.00527 0.169565 0.533295 -0.0800404 0.985692 
ITEM: TIMESTEP
29000
ITEM: NUMBER OF ATOMS
10
ITEM: BOX BOUNDS pp pp pp
-2.4260025374573142e+00 2.4260025374573142e+00
-2.4260025374573142e+00 2.4260025374573142e+00
-2.4260025374573142e+00 2.4260025374573142e+00
ITEM: ATOMS id mol type x y z vx vy vz 
4 1 4 0.984836 1.63739 -1.82359 0.00163067 0.499581 -1.01635 
5 1 5 1.05686 2.11635 -0.929034 -0.670818 0.721312 0.500489 
6 1 6 1.25018 -2.23033 -0.0665109 0.973691 -0.549613 -0.0592705 
7 1 7 2.07981 -1.93195 0.305013 0.114354 0.825083 -1.16205 
8 1 8 -1.93515 -1.59749 0.70127 0.62486 -0.476636 -0.251484 
1 1 1 0.789058 0.242372 0.407759 -1.48632 -0.506032 -1.81483 
9 1 9 -1.13811 -1.29113 1.06456 1.32295 1.30328 -0.287428 
10 1 10 -0.302179 -1.01659 1.47797 1.02937 -0.710386 0.332614 
2 1 2 0.862947 0.694763 1.26547 0.260067 0.567715 -0.1976 
3 1 3 0.922387 1.16729 2.16892 0.522398 -0.552573 -0.237757 
ITEM: TIMESTEP
30000
ITEM: NUMBER OF ATOMS
10
ITEM: BOX BOUNDS pp pp pp
-2.3832902312399415e+00 2.3832902312399415e+00
-2.3832902312399415e+00 2.3832902312399415e+00
-2.3832902312399415e+00 2.3832902312399415e+00
ITEM: ATOMS id mol type x y z vx vy vz 
4 1 4 1.10596 2.05974 -1.89366 -0.777872 0.62744 -0.894407 
5 1 5 1.22137 -1.98953 -1.21326 0.266024 0.881762 1.17281 
6 1 6 1.76788 -1.10579 -1.15786 -1.77306 0.482574 0.745957 
7 1 7 -2.3505 -1.16942 -0.367556 0.0394035 -0.714123 -0.131081 
8 1 8 -1.71959 -1.22177 0.416547 0.196758 -0.657226 -1.36898 
1 1 1 0.736354 0.0177009 0.790532 1.5619 -0.964427 0.533231 
9 1 9 -1.14123 -1.28634 1.19392 0.773379 -0.377818 0.310311 
10 1 10 -0.584363 -1.37651 1.98828 0.957304 -0.566601 0.794051 
2 1 2 0.880433 0.706845 1.49536 -0.599182 0.387257 -0.850793 
3 1 3 0.998264 1.37904 2.209 -0.481875 -0.457974 1.20033 
ITEM: TIMESTEP
31000
ITEM: NUMBER OF ATOMS
10
ITEM: BOX BOUNDS pp pp pp
-2.3425458360975155e+00 2.3425458360975155e+00
-2.3425458360975155e+00 2.3425458360975155e+00
-2.3425458360975155e+00 2.3425458360975155e+00
ITEM: ATOMS id mol type x y z vx vy vz 
4 1 4 1.24536 -2.09024 -1.72453 -0.460662 0.692307 0.645339 
5 1 5 1.5341 -1.42606 -1.00299 -0.202258 -0.209629 -0.461521 
6 1 6 1.33557 -1.84401 -0.121388 0.459967 -1.21233 -0.0314813 
7 1 7 2.26941 -1.53772 -0.0653258 -0.259318 1.4465 0.127274 
8 1 8 -1.47647 -1.21051 0.0394623 -0.530547 -0.225542 1.11242 
9 1 9 -0.551387 -0.903296 0.112544 0.297578 -0.206788 0.0469353 
1 1 1 0.376152 0.641305 0.996793 0.514933 0.148619 -0.207637 
2 1 2 0.68382 1.29617 1.66873 0.072742 -0.97569 -1.2362 
10 1 10 0.365958 -0.604647 0.200319 0.427527 -0.517702 -0.89906 
3 1 3 0.957995 1.94148 2.29833 -0.688223 -1.20647 0.148326 
ITEM: TIMESTEP
32000
ITEM: NUMBER OF ATOMS
10
ITEM: BOX BOUNDS pp pp pp
-2.3037594655775755e+00 2.3037594655775755e+00
-2.3037594655775755e+00 2.3037594655775755e+00
-2.3037594655775755e+00 2.3037594655775755e+00
ITEM: ATOMS id mol type x y z vx vy vz 
4 1 4 1.73688 1.8015 -1.89115 0.0724658 -0.105116 0.346764 
5 1 5 2.20106 1.4107 -1.09874 -0.820383 -0.574834 -0.672085 
6 1 6 2.03431 2.19238 -0.512372 0.623492 -0.190758 0.391302 
7 1 7 -2.06279 -1.62381 -0.171561 -0.239673 0.155165 0.88149 
8 1 8 -1.55189 -0.881834 0.169189 -0.914683 -0.284273 0.37631 
9 1 9 -1.04112 -0.148775 0.522127 -1.58103 -0.605689 0.405887 
10 1 10 -0.515599 0.563436 0.881478 0.545737 1.35807 -0.6717 
1 1 1 0.302223 -1.67528 0.395112 0.0937113 0.742088 -0.348313 
2 1 2 0.780003 -2.06899 1.16449 0.96096 -0.259735 1.15106 
3 1 3 1.25837 2.17085 1.93493 0.79874 -0.559299 0.420209 
ITEM: TIMESTEP
33000
ITEM: NUMBER OF ATOMS
10
ITEM: BOX BOUNDS pp pp pp
-2.2664998244225467e+00 2.2664998244225467e+00
-2.2664998244225467e+00 2.2664998244225467e+00
-2.2664998244225467e+00 2.2664998244225467e+00
ITEM: ATOMS id mol type x y z vx vy vz 
4 1 4 1.71053 2.28869 2.14998 0.611778 1.3812 -0.256493 
5 1 5 -1.9477 1.93448 -2.0868 0.367753 -0.972762 0.639269 
7 1 7 -1.29235 -1.39473 -0.732042 -0.191505 0.0719292 0.402341 
6 1 6 -1.71453 -1.90167 -1.45456 -0.910807 -0.268755 0.902062 
1 1 1 -0.930957 -1.20698 1.3562 0.665907 -0.166343 0.63139 
8 1 8 -0.882884 -0.829593 0.0300111 0.507404 0.00132977 0.454362 
9 1 9 -0.49473 -0.298032 0.745384 1.05157 0.0389688 -0.092519 
2 1 2 -0.056591 -1.55672 1.61785 -0.771419 -0.0100579 -1.1068 
10 1 10 -0.0998132 0.214602 1.45489 0.291576 -0.512732 0.289726 
3 1 3 0.827735 -1.89316 1.87684 -0.467325 0.833318 -0.305104 
ITEM: TIMESTEP
34000
ITEM: NUMBER OF ATOMS
10
ITEM: BOX BOUNDS pp pp pp
-2.2307985252925469e+00 2.2307985252925469e+00
-2.2307985252925469e+00 2.2307985252925469e+00
-2.2307985252925469e+00 2.2307985252925469e+00
ITEM: ATOMS id mol type x y z vx vy vz 
6 1 6 -1.6334 -1.98491 -1.32012 -0.212178 -0.132958 0.942073 
5 1 5 -1.63572 -1.6892 2.21468 -0.243133 -0.908196 0.518725 
7 1 7 -1.19007 -1.35314 -0.721059 0.743586 -0.121125 -0.572172 
8 1 8 -0.774662 -0.740457 -0.143744 0.308823 0.372929 0.540908 
1 1 1 -0.981557 -1.16191 1.41596 -0.947427 0.328308 -0.0487466 
9 1 9 -0.323941 -0.126304 0.456203 -0.552607 0.170967 0.275571 
2 1 2 -0.0636641 -1.29766 1.62089 1.01506 -1.56782 0.126309 