ITEM: TIMESTEP
0
ITEM: NUMBER OF ATOMS
200
ITEM: BOX BOUNDS pp pp pp
-2.5000000000000000e+01 2.5000000000000000e+01
-2.5000000000000000e+01 2.5000000000000000e+01
-2.5000000000000000e+01 2.5000000000000000e+01
ITEM: ATOMS id mol type x y z vx vy vz 
11 2 1 14.4657 -20.8748 -22.3551 0 0 0 
180 18 10 23.5474 1.05051 -22.0882 0 0 0 
169 17 9 2.9359 19.556 -22.0542 0 0 0 
170 17 10 3.71971 19.566 -22.6423 0 0 0 
12 2 2 14.5962 -20.5775 -21.4304 0 0 0 
179 18 9 23.5217 1.42363 -21.1824 0 0 0 
168 17 8 2.15209 19.546 -21.466 0 0 0 
13 2 3 14.7267 -20.2802 -20.5058 0 0 0 
167 17 7 1.36828 19.536 -20.8778 0 0 0 
178 18 8 23.496 1.79676 -20.2766 0 0 0 
165 17 5 -0.199344 19.516 -19.7015 0 0 0 
166 17 6 0.584466 19.526 -20.2897 0 0 0 
91 10 1 -11.1345 -22.7592 -19.0881 0 0 0 
14 2 4 14.8572 -19.9829 -19.5811 0 0 0 
177 18 7 23.4703 2.16988 -19.3707 0 0 0 
164 17 4 -0.983154 19.506 -19.1133 0 0 0 
50 5 10 -20.7603 22.2612 -19.2445 0 0 0 
92 10 2 -11.7678 -22.9544 -18.3662 0 0 0 
140 14 10 24.6546 -20.6409 -18.3828 0 0 0 
15 2 5 14.9877 -19.6856 -18.6564 0 0 0 
122 13 2 16.2772 -13.5295 -18.4572 0 0 0 
121 13 1 17.1993 -13.7985 -18.6512 0 0 0 
123 13 3 15.355 -13.2605 -18.2633 0 0 0 
176 18 6 23.4446 2.543 -18.4649 0 0 0 
163 17 3 -1.76696 19.496 -18.5252 0 0 0 
49 5 9 -20.588 21.9223 -18.3413 0 0 0 
93 10 3 -12.4011 -23.1496 -17.6442 0 0 0 
139 14 9 24.5992 -20.5719 -17.4068 0 0 0 
16 2 6 15.1181 -19.3883 -17.7318 0 0 0 
125 13 5 13.5106 -12.7225 -17.8755 0 0 0 
124 13 4 14.4328 -12.9915 -18.0694 0 0 0 
127 13 7 11.6662 -12.1845 -17.4876 0 0 0 
126 13 6 12.5884 -12.4535 -17.6815 0 0 0 
175 18 5 23.419 2.91613 -17.5591 0 0 0 
161 17 1 -3.33458 19.476 -17.3488 0 0 0 
162 17 2 -2.55077 19.486 -17.937 0 0 0 
48 5 8 -20.4156 21.5834 -17.438 0 0 0 
94 10 4 -13.0344 -23.3448 -16.9223 0 0 0 
17 2 7 15.2486 -19.091 -16.8071 0 0 0 
130 13 10 8.89966 -11.3774 -16.9058 0 0 0 
129 13 9 9.82184 -11.6465 -17.0998 0 0 0 
128 13 8 10.744 -11.9155 -17.2937 0 0 0 
174 18 4 23.3933 3.28925 -16.6533 0 0 0 
95 10 5 -13.6677 -23.54 -16.2003 0 0 0 
138 14 8 24.5438 -20.5029 -16.4308 0 0 0 
18 2 8 15.3791 -18.7937 -15.8825 0 0 0 
80 8 10 0.459863 1.88865 -16.4108 0 0 0 
47 5 7 -20.2432 21.2446 -16.5348 0 0 0 
96 10 6 -14.3011 -23.7352 -15.4784 0 0 0 
137 14 7 24.4884 -20.4339 -15.4548 0 0 0 
79 8 9 0.317756 2.26768 -15.5184 0 0 0 
173 18 3 23.3676 3.66237 -15.7474 0 0 0 
46 5 6 -20.0708 20.9057 -15.6315 0 0 0 
97 10 7 -14.9344 -23.9305 -14.7564 0 0 0 
136 14 6 24.433 -20.3648 -14.4788 0 0 0 
19 2 9 15.5096 -18.4965 -14.9578 0 0 0 
78 8 8 0.17565 2.6467 -14.6259 0 0 0 
172 18 2 23.3419 4.0355 -14.8416 0 0 0 
45 5 5 -19.8984 20.5668 -14.7283 0 0 0 
98 10 8 -15.5677 -24.1257 -14.0345 0 0 0 
135 14 5 24.3776 -20.2958 -13.5029 0 0 0 
20 2 10 15.64 -18.1992 -14.0331 0 0 0 
77 8 7 0.0335433 3.02572 -13.7334 0 0 0 
171 18 1 23.3162 4.40862 -13.9358 0 0 0 
44 5 4 -19.7261 20.228 -13.825 0 0 0 
109 11 9 10.8026 23.4245 -13.6177 0 0 0 
110 11 10 10.5004 24.2801 -13.9877 0 0 0 
99 10 9 -16.201 -24.3209 -13.3126 0 0 0 
76 8 6 -0.108563 3.40474 -12.8409 0 0 0 
43 5 3 -19.5537 19.8891 -12.9218 0 0 0 
107 11 7 11.4069 21.7131 -12.8777 0 0 0 
108 11 8 11.1048 22.5688 -13.2477 0 0 0 
100 10 10 -16.8343 -24.5161 -12.5906 0 0 0 
134 14 4 24.3222 -20.2268 -12.5269 0 0 0 
75 8 5 -0.25067 3.78376 -11.9484 0 0 0 
42 5 2 -19.3813 19.5502 -12.0185 0 0 0 
105 11 5 12.0113 20.0018 -12.1377 0 0 0 
106 11 6 11.7091 20.8574 -12.5077 0 0 0 
133 14 3 24.2668 -20.1577 -11.5509 0 0 0 
103 11 3 12.6157 18.2904 -11.3978 0 0 0 
104 11 4 12.3135 19.1461 -11.7678 0 0 0 
132 14 2 24.2114 -20.0887 -10.5749 0 0 0 
74 8 4 -0.392776 4.16278 -11.0559 0 0 0 
101 11 1 13.2201 16.5791 -10.6578 0 0 0 
102 11 2 12.9179 17.4347 -11.0278 0 0 0 
41 5 1 -19.2089 19.2114 -11.1153 0 0 0 
73 8 3 -0.534883 4.54181 -10.1634 0 0 0 
131 14 1 24.156 -20.0197 -9.59888 0 0 0 
89 9 9 -13.1299 -15.8673 -8.90466 0 0 0 
90 9 10 -12.3179 -16.207 -9.33561 0 0 0 
72 8 2 -0.676989 4.92083 -9.27088 0 0 0 
88 9 8 -13.9418 -15.5276 -8.47371 0 0 0 
71 8 1 -0.819096 5.29985 -8.37839 0 0 0 
87 9 7 -14.7538 -15.1879 -8.04275 0 0 0 
86 9 6 -15.5657 -14.8482 -7.6118 0 0 0 
85 9 5 -16.3777 -14.5085 -7.18085 0 0 0 
84 9 4 -17.1897 -14.1687 -6.7499 0 0 0 
82 9 2 -18.8136 -13.4893 -5.888 0 0 0 
83 9 3 -18.0016 -13.829 -6.31895 0 0 0 
81 9 1 -19.6255 -13.1496 -5.45704 0 0 0 
30 3 10 -17.4924 -6.34115 -4.82858 0 0 0 
29 3 9 -17.2974 -6.49494 -3.88058 0 0 0 
28 3 8 -17.1023 -6.64873 -2.93258 0 0 0 
27 3 7 -16.9073 -6.80251 -1.98458 0 0 0 
26 3 6 -16.7122 -6.9563 -1.03658 0 0 0 
111 12 1 7.12711 -1.33499 -0.565455 0 0 0 
25 3 5 -16.5171 -7.11009 -0.0885803 0 0 0 
112 12 2 7.6148 -1.94079 0.0308482 0 0 0 
190 19 10 4.62364 -13.1531 0.700319 0 0 0 
24 3 4 -16.3221 -7.26388 0.859419 0 0 0 
113 12 3 8.10249 -2.54658 0.627151 0 0 0 
189 19 9 4.40338 -12.7498 1.56592 0 0 0 
23 3 3 -16.127 -7.41766 1.80742 0 0 0 
115 12 5 9.07786 -3.75816 1.81976 0 0 0 
114 12 4 8.59018 -3.15237 1.22345 0 0 0 
188 19 8 4.18313 -12.3466 2.43153 0 0 0 
116 12 6 9.56555 -4.36395 2.41606 0 0 0 
187 19 7 3.96288 -11.9433 3.29713 0 0 0 
22 3 2 -15.932 -7.57145 2.75542 0 0 0 
117 12 7 10.0532 -4.96974 3.01236 0 0 0 
186 19 6 3.74263 -11.5401 4.16274 0 0 0 
21 3 1 -15.7369 -7.72524 3.70342 0 0 0 
119 12 9 11.0286 -6.18132 4.20497 0 0 0 
118 12 8 10.5409 -5.57553 3.60867 0 0 0 
120 12 10 11.5163 -6.78712 4.80127 0 0 0 
185 19 5 3.52238 -11.1368 5.02834 0 0 0 
142 15 2 -13.2555 4.81345 5.63002 0 0 0 
141 15 1 -12.6343 5.4073 5.15901 0 0 0 
184 19 4 3.30213 -10.7336 5.89395 0 0 0 
143 15 3 -13.8767 4.2196 6.10103 0 0 0 
183 19 3 3.08187 -10.3303 6.75955 0 0 0 
145 15 5 -15.1191 3.0319 7.04305 0 0 0 
144 15 4 -14.4979 3.62575 6.57204 0 0 0 
191 20 1 -3.59674 24.5882 7.27812 0 0 0 
182 19 2 2.86162 -9.92704 7.62516 0 0 0 
147 15 7 -16.3615 1.84419 7.98507 0 0 0 
146 15 6 -15.7403 2.43805 7.51406 0 0 0 
192 20 2 -3.94522 23.8644 7.83951 0 0 0 
181 19 1 2.64137 -9.52378 8.49076 0 0 0 
148 15 8 -16.9827 1.25034 8.45608 0 0 0 
193 20 3 -4.2937 23.1407 8.4009 0 0 0 
10 1 10 -2.71247 -14.1466 9.13969 0 0 0 
150 15 10 -18.2251 0.0626393 9.39809 0 0 0 
149 15 9 -17.6039 0.656491 8.92708 0 0 0 
195 20 5 -4.99067 21.6932 9.52368 0 0 0 
194 20 4 -4.64219 22.4169 8.96229 0 0 0 
9 1 9 -2.66073 -14.1959 10.1171 0 0 0 
196 20 6 -5.33915 20.9695 10.0851 0 0 0 
8 1 8 -2.60898 -14.2452 11.0945 0 0 0 
197 20 7 -5.68763 20.2457 10.6465 0 0 0 
199 20 9 -6.38459 18.7982 11.7693 0 0 0 
198 20 8 -6.03611 19.522 11.2079 0 0 0 
7 1 7 -2.55723 -14.2945 12.0719 0 0 0 
200 20 10 -6.73307 18.0745 12.3306 0 0 0 
6 1 6 -2.50548 -14.3438 13.0492 0 0 0 
5 1 5 -2.45374 -14.3932 14.0266 0 0 0 
70 7 10 23.7298 -8.17021 14.1237 0 0 0 
69 7 9 23.6761 -7.55903 14.8879 0 0 0 
56 6 6 -4.67401 1.7821 14.9893 0 0 0 
57 6 7 -3.76798 2.15058 14.9282 0 0 0 
58 6 8 -2.86195 2.51906 14.8672 0 0 0 
59 6 9 -1.95591 2.88754 14.8061 0 0 0 
60 6 10 -1.04988 3.25602 14.745 0 0 0 
152 16 2 -18.9377 18.4218 14.9662 0 0 0 
151 16 1 -19.7737 18.9044 14.7976 0 0 0 
4 1 4 -2.40199 -14.4425 15.004 0 0 0 
68 7 8 23.6224 -6.94785 15.6521 0 0 0 
51 6 1 -9.20417 -0.0603044 15.2945 0 0 0 
52 6 2 -8.29814 0.308176 15.2335 0 0 0 
53 6 3 -7.39211 0.676657 15.1724 0 0 0 
54 6 4 -6.48608 1.04514 15.1114 0 0 0 
55 6 5 -5.58004 1.41362 15.0503 0 0 0 
156 16 6 -15.5933 16.4913 15.6409 0 0 0 
155 16 5 -16.4294 16.974 15.4722 0 0 0 
153 16 3 -18.1016 17.9392 15.1349 0 0 0 
154 16 4 -17.2655 17.4566 15.3036 0 0 0 
3 1 3 -2.35024 -14.4918 15.9814 0 0 0 
31 4 1 -0.31419 -11.9237 16.2132 0 0 0 
67 7 7 23.5686 -6.33667 16.4162 0 0 0 
160 16 10 -12.249 14.5609 16.3156 0 0 0 
158 16 8 -13.9212 15.5261 15.9782 0 0 0 
159 16 9 -13.0851 15.0435 16.1469 0 0 0 
157 16 7 -14.7572 16.0087 15.8096 0 0 0 
2 1 2 -2.2985 -14.5411 16.9588 0 0 0 
33 4 3 -1.98335 -11.4422 17.1208 0 0 0 
32 4 2 -1.14877 -11.6829 16.667 0 0 0 
66 7 6 23.5149 -5.72549 17.1804 0 0 0 
1 1 1 -2.24675 -14.5905 17.9362 0 0 0 
34 4 4 -2.81793 -11.2014 17.5745 0 0 0 
35 4 5 -3.65251 -10.9607 18.0283 0 0 0 
65 7 5 23.4612 -5.11431 17.9446 0 0 0 
36 4 6 -4.48709 -10.7199 18.4821 0 0 0 
64 7 4 23.4075 -4.50313 18.7088 0 0 0 
37 4 7 -5.32167 -10.4792 18.9359 0 0 0 
38 4 8 -6.15625 -10.2384 19.3896 0 0 0 
63 7 3 23.3537 -3.89195 19.473 0 0 0 
40 4 10 -7.82541 -9.7569 20.2972 0 0 0 
39 4 9 -6.99083 -9.99766 19.8434 0 0 0 
62 7 2 23.3 -3.28077 20.2371 0 0 0 
61 7 1 23.2463 -2.66959 21.0013 0 0 0 
ITEM: TIMESTEP
1000
ITEM: NUMBER OF ATOMS
200
ITEM: BOX BOUNDS pp pp pp
-2.1623590347610850e+01 2.1623590347610850e+01
-2.1623590347610850e+01 2.1623590347610850e+01
-2.1623590347610850e+01 2.1623590347610850e+01
ITEM: ATOMS id mol type x y z vx vy vz 
180 18 10 21.4884 0.97651 -19.6813 -0.544256 0.421445 -0.436297 
165 17 5 0.819394 16.1201 -19.8835 0.146976 0.460069 -0.293362 
166 17 6 1.01055 16.9626 -19.5143 0.297492 -0.0545651 -1.09766 
167 17 7 1.8899 17.4477 -19.4578 1.51128 -0.35351 -0.224399 
168 17 8 2.74036 17.9341 -19.4022 1.62843 0.0810901 -0.0402411 
169 17 9 3.59814 18.3994 -19.3521 0.955808 1.02775 -1.11286 
170 17 10 4.45999 18.8864 -19.3257 0.615213 1.4994 0.82718 
11 2 1 12.9367 -18.8172 -18.6604 1.09086 0.0125054 0.0530707 
179 18 9 21.06 1.24067 -18.8611 -0.449933 0.347721 -0.0192023 
164 17 4 0.23038 15.7265 -19.1599 1.64753 -1.55336 1.34285 
178 18 8 20.6488 1.51457 -18.0184 0.184963 1.30619 -0.446918 
163 17 3 -0.306728 15.3817 -18.4268 -1.0986 -0.968287 -1.34525 
50 5 10 -17.2719 18.5003 -17.9364 0.806652 -0.0918667 -0.417381 
12 2 2 12.6887 -18.5525 -17.6947 -0.592705 -0.256994 1.19063 
177 18 7 20.2692 1.78812 -17.1514 -0.576829 -0.229073 0.740112 
162 17 2 -0.873641 15.0682 -17.6588 -0.2439 -0.317901 0.79728 
91 10 1 -9.03977 -20.502 -16.3079 -0.436231 0.402548 -0.443583 
140 14 10 19.9075 -19.2428 -16.2312 0.532583 -0.962996 -0.428792 
13 2 3 12.4507 -18.2914 -16.75 0.6393 -0.928971 -0.336853 
121 13 1 14.8638 -14.1933 -16.7392 0.293852 -0.367856 -0.178898 
122 13 2 14.1587 -13.6085 -16.3728 1.81751 -0.743095 1.20932 
176 18 6 19.9067 2.05826 -16.2979 0.188494 0.49668 -0.0369276 
161 17 1 -1.39697 14.7637 -16.9121 -0.265564 -0.386986 -0.442326 
49 5 9 -17.4178 18.2672 -16.9478 -1.15424 1.18957 -0.791454 
95 10 5 -12.9352 -21.0242 -15.478 0.10397 -0.49787 -0.304421 
94 10 4 -11.9341 -20.8847 -15.7021 0.44412 1.26364 0.179335 
93 10 3 -10.9697 -20.7669 -15.9177 -0.0604963 0.663874 -0.610496 
92 10 2 -10.006 -20.6468 -16.11 -0.800324 -0.217648 -1.2663 
14 2 4 12.2472 -18.0478 -15.8092 -0.0696313 -1.22486 -0.793795 
124 13 4 12.7392 -12.4163 -15.5503 1.24951 -0.0532763 -0.30001 
123 13 3 13.4319 -13.0259 -15.963 -0.996001 -0.0117075 0.232466 
175 18 5 20.656 1.89852 -15.8488 0.190236 -0.316822 0.630178 
48 5 8 -17.5756 18.0357 -15.9923 0.818124 -0.0915197 0.912968 
139 14 9 19.937 -18.9882 -15.2922 -1.60647 0.50844 0.833371 
15 2 5 12.0453 -17.7891 -14.9023 0.453704 1.35698 0.0101538 
16 2 6 11.7169 -16.9691 -14.7139 0.640709 -0.142273 -1.12334 
125 13 5 12.0376 -11.8053 -15.1795 -0.147076 0.849287 -0.233259 
127 13 7 10.7806 -10.8518 -14.8706 0.610609 -0.235661 -0.419056 
126 13 6 11.746 -11.0144 -14.7198 0.338945 0.253551 -0.0432235 
130 13 10 7.94607 -10.3899 -15.3209 -1.00376 0.261989 -0.056189 
129 13 9 8.90549 -10.5377 -15.1623 1.37098 -0.17064 0.477641 
128 13 8 9.87953 -10.6839 -15.0196 -0.663425 0.184782 1.30616 
80 8 10 0.745359 1.22454 -15.0853 -0.505638 -0.377519 1.14782 
174 18 4 21.096 2.50592 -15.2298 -1.36956 0.659185 0.0732239 
47 5 7 -17.7389 17.8094 -15.045 0.142393 0.663637 -0.503115 
96 10 6 -13.3732 -20.9208 -14.6137 0.859092 1.10057 1.42913 
138 14 8 19.9372 -18.7177 -14.3586 -1.01046 0.737439 1.6596 
17 2 7 12.3976 -16.2336 -14.6007 -0.445662 0.215421 1.34887 
18 2 8 13.0958 -15.5472 -14.4591 0.59127 1.02837 0.0366444 
19 2 9 13.8086 -14.8733 -14.325 0.61994 1.72626 -0.497514 
20 2 10 14.5428 -14.2388 -14.144 0.0915237 0.240859 -0.949455 
79 8 9 0.386519 1.47757 -14.2162 -0.314545 -0.0791416 -0.737917 
172 18 2 -21.2292 3.81897 -14.0308 -0.579302 0.517561 -0.479322 
173 18 3 21.5635 3.16687 -14.6132 -0.0285983 -1.26126 -0.0308579 
46 5 6 -17.921 17.5541 -14.0901 -0.130355 -1.20368 0.295108 
97 10 7 -13.0893 -20.8274 -13.6681 -0.581427 -0.22391 0.173834 
137 14 7 19.9094 -18.4534 -13.4411 -0.186182 0.147213 1.04319 
78 8 8 0.00248382 1.69384 -13.3415 0.397147 1.85048 0.178069 
171 18 1 -20.7482 4.4833 -13.483 -0.696087 0.614124 -0.314902 
45 5 5 -17.0351 17.4796 -13.5968 0.318316 -0.121203 1.05406 
98 10 8 -12.795 -20.7446 -12.725 1.01346 -0.61268 -1.0786 
136 14 6 19.8644 -18.1775 -12.4655 -0.374334 -0.87612 0.723325 
77 8 7 -0.39798 1.9441 -12.4598 -0.315541 -0.219072 0.189415 
44 5 4 -16.5621 17.7338 -12.8077 0.833986 -0.369845 -0.918104 
110 11 10 9.81613 20.0673 -12.8279 -0.332164 0.78511 0.392691 
99 10 9 -12.4671 -20.6781 -11.7907 0.609918 -1.08944 0.889408 
135 14 5 19.1935 -18.1071 -11.665 -1.60935 -0.0189541 0.32969 
76 8 6 -0.798626 2.21187 -11.6124 0.189962 0.845895 0.571444 
43 5 3 -16.0602 17.9899 -11.9768 -1.07146 -0.357625 1.11632 
109 11 9 9.52149 19.542 -12.089 -0.544803 0.695384 0.237424 
100 10 10 -12.1195 -20.6285 -10.9 -0.0920015 0.588505 1.35458 
42 5 2 -15.5791 18.2196 -11.1669 -0.18032 0.0873494 -0.83286 
108 11 8 9.2157 18.9671 -11.3399 0.362004 -0.365565 0.109258 
134 14 4 19.5277 -18.315 -10.7496 -0.729009 -0.91469 0.529706 
75 8 5 -0.896644 1.94376 -10.5609 0.0946125 -0.294353 0.0390292 
74 8 4 -0.548602 2.79538 -10.3024 0.748194 -1.33924 0.414684 
101 11 1 11.6828 14.1166 -10.721 0.421595 -0.549334 0.111728 
102 11 2 11.076 14.8937 -10.5012 0.236739 -0.101868 1.66406 
103 11 3 10.4994 15.6205 -10.3212 0.179807 0.238341 0.264914 
104 11 4 9.87872 16.3551 -10.1292 -0.312434 0.715239 0.330094 
41 5 1 -15.111 18.4777 -10.3912 0.745893 1.08 0.144187 
107 11 7 8.91392 18.37 -10.5805 -0.554666 -0.82925 -0.607111 
133 14 3 19.8302 -18.5516 -9.83751 1.00729 -0.438188 0.129663 
73 8 3 -0.223095 3.67703 -10.0381 -0.563084 -0.699199 0.898746 
72 8 2 0.121819 4.55369 -9.78393 1.85802 -0.522166 -1.09924 
71 8 1 0.446783 5.43534 -9.55146 1.1559 0.198285 -0.993737 
105 11 5 9.25157 17.1195 -9.96216 -0.522836 -0.866914 0.38636 
106 11 6 8.61422 17.7951 -9.8796 0.604664 -0.134436 0.971496 
132 14 2 20.1427 -18.7661 -8.90553 -2.1113 0.58648 -0.359915 
131 14 1 20.4323 -18.9718 -8.03943 0.503037 -0.445658 -0.610982 
89 9 9 -10.8859 -13.4042 -7.37286 0.322226 0.664356 0.287707 
90 9 10 -9.98241 -13.7105 -7.66795 -1.10678 1.32779 0.312525 
88 9 8 -11.7674 -13.102 -7.10195 0.462158 0.819541 -0.29572 
85 9 5 -14.4278 -13.0821 -6.62562 0.048941 -0.139531 -0.247584 
86 9 6 -13.5877 -12.4036 -6.58313 0.195802 0.188385 0.346535 
87 9 7 -12.6908 -12.7704 -6.83096 0.136098 0.946214 0.755101 
84 9 4 -15.0273 -12.5249 -6.10302 0.658064 0.0247591 0.11391 
83 9 3 -15.6158 -11.9761 -5.56719 -1.00794 -0.668329 0.916533 
82 9 2 -16.2142 -11.4151 -5.05885 0.64513 0.402797 -1.56229 
81 9 1 -16.8328 -10.8201 -4.49335 0.386117 -0.434708 -0.721211 
30 3 10 -16.5665 -7.40373 -2.696 1.41147 -0.148971 0.0899679 
29 3 9 -15.6724 -7.50813 -2.38959 1.10571 -1.11007 0.640392 
27 3 7 -13.8136 -7.80171 -1.75332 -0.165714 0.158881 1.20645 
28 3 8 -14.7602 -7.63993 -2.07807 0.397045 0.726302 0.66557 
26 3 6 -12.9135 -7.95103 -1.43479 -0.423417 -0.726698 1.75438 
111 12 1 7.10589 -1.03821 -0.841512 0.619351 -0.113463 -0.246146 
25 3 5 -13.4067 -8.02122 -0.727265 0.14603 -0.181438 -0.967595 
24 3 4 -14.0121 -7.47209 -0.180067 -0.0712353 0.901593 -1.7433 
112 12 2 7.43803 -1.7731 -0.309514 0.0653595 0.165591 -0.543486 
23 3 3 -14.6241 -6.93569 0.401656 -1.25948 0.135425 0.173405 
114 12 4 8.085 -3.33848 0.733991 0.115507 -0.41753 1.75389 
113 12 3 7.75149 -2.56918 0.218938 0.189362 0.34998 -0.515514 
190 19 10 4.72081 -11.0886 1.18482 0.927468 0.984696 0.0286896 
22 3 2 -15.2325 -6.43503 0.959365 1.86186 1.15637 0.394999 
21 3 1 -15.8483 -5.89713 1.50101 -0.352607 0.979727 0.226897 
115 12 5 8.38048 -4.07024 1.24982 -0.178039 0.42571 -0.427319 
189 19 9 3.99888 -11.0195 1.83973 -0.348654 0.164062 0.313109 
116 12 6 8.15547 -3.95997 2.21921 0.117343 0.521251 -0.626515 
188 19 8 3.26061 -10.9483 2.54538 1.64362 -0.298577 0.399393 
117 12 7 8.36783 -4.38547 3.05797 -0.521601 -0.719131 -0.455296 
187 19 7 2.58859 -10.9104 3.23781 0.586183 -1.22305 0.761628 
186 19 6 1.90599 -10.8613 3.96496 -0.936593 0.214764 0.987568 
118 12 8 8.57515 -4.8237 3.90115 0.603804 0.631705 -0.909037 
141 15 1 -11.8973 5.09499 4.26741 0.102297 0.759875 -0.715644 
185 19 5 1.53232 -11.0393 4.77739 0.106511 0.480933 0.854271 
184 19 4 2.00215 -10.1913 5.02587 0.441988 0.733588 -0.627624 
183 19 3 2.4842 -9.38822 5.28568 -0.911824 -0.305346 -0.348526 
119 12 9 8.78405 -5.29619 4.80762 1.10885 -0.0957031 -0.519692 
143 15 3 -12.5073 3.55605 5.30338 0.0427412 0.275935 -1.01711 
142 15 2 -12.2296 4.31425 4.79355 0.518413 -0.638205 -0.408064 
182 19 2 2.96247 -8.55911 5.58138 0.0285575 -1.05833 0.0519232 
181 19 1 3.43284 -7.71563 5.84762 0.688093 0.282831 1.13643 
120 12 10 9.01938 -5.75101 5.62188 -1.03444 -0.348101 -0.410189 
147 15 7 -14.4641 1.66842 5.88043 -0.122202 0.664255 -0.439033 
146 15 6 -13.6288 1.6789 5.43863 0.684535 -0.555693 0.275091 
144 15 4 -12.7975 2.78449 5.8214 -0.84087 -1.10184 -0.352585 
149 15 9 -16.1924 1.65353 6.82136 -0.182593 0.120876 0.231135 
148 15 8 -15.3121 1.68072 6.33356 -1.53813 0.419356 -0.991087 
145 15 5 -13.0855 2.02241 6.34795 -0.70809 0.75121 0.121048 
191 20 1 -2.92072 21.4519 6.74687 -0.200655 0.753823 -0.477566 
150 15 10 -17.0127 1.63882 7.26474 0.135762 1.4428 -0.781504 
193 20 3 -3.17157 19.6126 7.42536 1.09335 0.142715 -0.2664 
192 20 2 -3.04737 20.4877 7.11067 1.18368 0.473032 0.791775 
10 1 10 -2.9163 -12.3627 7.8001 0.154054 0.096728 -0.862019 
195 20 5 -3.428 17.8408 8.14393 -0.372323 0.0743768 -0.588241 
194 20 4 -3.30461 18.713 7.79025 0.119517 -0.676367 -0.204926 
9 1 9 -2.84108 -12.4367 8.7905 -0.336823 0.295048 0.290031 
196 20 6 -3.43377 16.995 8.68698 -0.942337 -0.1293 0.496825 
8 1 8 -2.7949 -12.5185 9.72886 -0.4387 0.288621 0.852552 
197 20 7 -3.59135 16.3895 9.44757 -0.902072 -1.07302 0.682488 
7 1 7 -2.70851 -12.5986 10.703 -0.687374 -0.2504 -0.631467 
51 6 1 -6.46135 -2.19299 10.0928 0.299816 0.0144755 -0.8671 
52 6 2 -5.87362 -1.50716 10.5534 0.606314 0.405264 0.84192 
198 20 8 -3.7146 15.8089 10.1732 0.771382 -1.51748 -0.32491 
53 6 3 -5.32371 -0.841823 11.0201 0.675769 0.439901 -0.864994 
54 6 4 -4.78781 -0.164573 11.4701 0.48416 0.576112 -0.376089 
199 20 9 -3.84481 15.1668 10.9457 0.37321 0.697171 0.20495 
151 16 1 -17.2416 16.0589 11.0523 -0.297554 -0.0708762 -0.223107 
6 1 6 -2.62569 -12.6984 11.6573 0.376767 0.29865 -1.17255 
70 7 10 20.7384 -5.98567 11.777 0.0760399 0.276645 -0.146431 
55 6 5 -4.23803 0.552556 11.9227 0.626596 0.419564 0.493697 
58 6 8 -1.71576 0.770295 12.3501 0.185102 -0.518446 -0.502062 
59 6 9 -0.784739 0.622609 12.3243 0.871373 -0.967936 -0.10586 
60 6 10 0.167793 0.44713 12.303 0.792062 -1.55764 -0.250717 
200 20 10 -3.9811 14.5422 11.6885 1.77985 -0.908653 0.637179 
152 16 2 -16.9037 15.5132 11.7488 0.217369 0.722492 -0.715028 
5 1 5 -2.96014 -12.1442 12.4305 0.46041 -1.12873 -0.376994 
69 7 9 20.3597 -5.72112 12.6371 0.217457 0.721082 0.179959 
56 6 6 -3.63529 1.15369 12.44 -0.577509 -0.595456 -0.256902 
57 6 7 -2.67672 0.963161 12.3987 1.18626 -0.160782 0.396171 
153 16 3 -16.5257 14.9698 12.4575 -0.544586 -1.53273 -0.775914 
4 1 4 -2.48703 -12.1261 13.3019 -0.501119 0.76581 -0.162221 
68 7 8 19.9812 -5.44322 13.5297 0.298892 0.441484 -0.232507 
155 16 5 -15.7293 13.834 13.8537 0.843862 0.371382 1.4376 
154 16 4 -16.1303 14.4015 13.1612 -1.24163 0.881065 0.699689 
156 16 6 -15.0061 14.4169 13.704 -0.185186 -0.633537 -0.514081 
157 16 7 -14.0801 14.7644 13.5801 -0.466605 -0.162934 1.13284 
158 16 8 -13.1675 15.1061 13.4716 -0.63987 -0.360108 0.118143 
159 16 9 -12.2532 15.4608 13.405 -0.554961 -0.54388 -1.0504 
160 16 10 -11.3006 15.8128 13.3318 -0.0981 -0.0347201 0.0368833 
3 1 3 -2.00422 -12.1274 14.1677 -1.11246 0.224872 0.994735 
31 4 1 0.941287 -8.98444 14.4658 -0.378138 0.902592 -1.0232 
67 7 7 19.5688 -5.1526 14.3902 0.0827025 0.669645 0.198923 
2 1 2 -1.51778 -12.1637 15.0112 -0.975521 -0.702689 -0.46782 
34 4 4 -1.80608 -9.31519 15.4188 -0.791449 -0.24086 0.827674 
33 4 3 -0.886362 -9.19687 15.1101 1.55057 0.730068 -0.656703 
32 4 2 0.0352042 -9.07657 14.7865 1.82637 0.10414 0.598289 
66 7 6 19.1828 -4.879 15.2471 0.811032 -0.129609 0.250028 
65 7 5 20.0067 -4.14072 15.4437 0.359532 -0.598665 -0.12491 
1 1 1 -1.04699 -12.2179 15.8713 0.483668 0.132704 0.596008 
35 4 5 -2.69983 -9.45641 15.7886 -0.915156 0.288093 0.14098 
64 7 4 19.9341 -3.31533 15.9799 -0.447765 0.180433 0.233617 
36 4 6 -3.12967 -8.88427 16.5768 -0.0909795 -0.91038 -0.27547 
37 4 7 -3.8405 -8.37561 16.9754 -0.159583 1.42521 -0.461181 
63 7 3 19.8997 -2.49085 16.4644 1.11035 1.45367 -0.0797818 
62 7 2 19.8739 -1.65633 16.9321 -0.199364 1.6634 0.893376 
38 4 8 -4.59466 -7.92054 17.4441 1.09354 -0.864293 -0.392677 
61 7 1 19.8355 -0.794732 17.4765 0.284197 0.125679 -0.309883 
40 4 10 -6.17548 -7.04003 18.3289 -0.755826 1.40075 -0.834015 
39 4 9 -5.37195 -7.47884 17.8819 0.745812 0.199439 0.244624 
ITEM: TIMESTEP
2000
ITEM: NUMBER OF ATOMS
200
ITEM: BOX BOUNDS pp pp pp
-1.9362463634846517e+01 1.9362463634846517e+01
-1.9362463634846517e+01 1.9362463634846517e+01
-1.9362463634846517e+01 1.9362463634846517e+01
ITEM: ATOMS id mol type x y z vx vy vz 
180 18 10 -19.3029 0.852441 -17.9051 0.250331 0.775631 1.44168 
165 17 5 1.33362 13.4018 19.1429 -0.478553 0.664978 0.452608 
166 17 6 0.820029 14.2445 18.7526 -0.692335 1.01104 0.52101 
167 17 7 1.13427 14.9133 -19.309 -0.325353 0.939852 0.268926 
168 17 8 1.50633 15.5503 -18.624 -1.30196 -0.356767 -0.523224 
169 17 9 1.85624 16.1272 -17.9647 -0.841215 0.0112603 0.419968 
170 17 10 2.27322 16.7505 -17.2576 0.0632721 0.687731 -0.19427 
11 2 1 10.1026 -17.5799 -17.0663 0.860788 -0.459321 -0.32047 
179 18 9 18.8753 1.16195 -17.143 -0.641122 -0.449491 0.992751 
164 17 4 0.999216 13.2492 -18.6369 -0.471782 1.34464 0.117199 
178 18 8 18.351 1.47822 -16.4107 0.575372 -0.748048 -0.995137 
163 17 3 0.680889 13.0791 -17.7692 -0.38116 0.041799 0.435409 
50 5 10 -13.7669 16.5126 -16.1277 0.666971 0.971516 0.520119 
12 2 2 10.7129 -17.0702 -16.4519 -0.588102 1.03033 -0.658504 
177 18 7 17.8219 1.81233 -15.6068 -0.690926 0.897066 0.877297 
162 17 2 0.329548 12.9322 -16.8403 -1.37852 0.183451 -0.0160795 
91 10 1 -6.91788 18.8749 -15.8716 0.651154 -1.67795 0.187847 
140 14 10 19.1508 -15.4128 -13.3977 0.76085 0.0651436 1.27173 
13 2 3 11.2754 -16.571 -15.8433 0.347553 0.237103 0.105265 
121 13 1 11.9059 -14.0703 -15.453 -0.364612 0.0260387 -0.221969 
122 13 2 11.7127 -13.114 -15.3474 0.729586 -1.9803 -0.026518 
176 18 6 17.2969 2.11187 -14.8296 -0.248336 0.207569 0.292844 
161 17 1 0.0106665 12.7491 -15.9188 1.66167 1.39984 -0.918378 
49 5 9 -14.3073 16.2609 -15.3279 -0.305252 0.632167 -0.196819 
95 10 5 -9.20315 -18.0953 -13.1235 0.688562 0.853678 -0.818241 
94 10 4 -8.66918 -18.524 -13.8876 0.926968 0.319004 -0.114932 
93 10 3 -8.11157 -18.9446 -14.5615 0.883504 0.0364341 1.35882 
92 10 2 -7.49294 19.3278 -15.2336 0.21114 0.605175 0.327036 
14 2 4 11.8278 -16.0821 -15.2323 -0.127934 -0.569909 0.0772276 
124 13 4 11.2499 -11.2009 -15.1485 0.618165 -1.26306 0.815265 
123 13 3 11.4911 -12.1695 -15.2528 1.08485 -0.108837 -0.557139 
175 18 5 17.7726 2.67501 -14.2692 0.154837 -0.0540865 -0.493803 
48 5 8 -14.8476 16.0126 -14.568 0.60865 -0.44741 0.352685 
139 14 9 18.3441 -15.6055 -12.947 -0.362366 0.990688 0.16911 
15 2 5 12.3824 -15.549 -14.6317 -0.0259236 -1.177 0.828573 
16 2 6 12.2874 -15.0699 -13.8261 0.622985 0.651315 -1.53245 
125 13 5 11.0012 -10.2479 -15.0545 0.512492 0.063868 -0.232101 
127 13 7 9.84504 -9.52172 -14.027 0.904659 -0.354418 1.5486 
126 13 6 10.5913 -9.39704 -14.6748 -1.69992 1.77831 -0.540295 
130 13 10 7.52673 -9.88805 -12.1242 1.08434 0.275269 0.860051 
129 13 9 8.3184 -9.77701 -12.7374 0.809122 -1.22873 -0.440623 
128 13 8 9.0706 -9.6439 -13.3633 0.0943355 -0.725867 1.14071 
80 8 10 -0.296994 -0.83496 -12.5247 0.0888334 0.27883 0.620583 
174 18 4 18.3264 2.5748 -13.4482 0.481106 1.06376 0.0249705 
47 5 7 -15.4031 15.7496 -13.7974 0.489028 -0.25936 1.56165 
96 10 6 -8.65905 -17.7605 -12.2851 0.10897 0.287588 -0.572033 
138 14 8 17.4911 -15.781 -12.4573 0.720014 -0.211184 0.276548 
17 2 7 12.9585 -14.3495 -14.0497 -1.2597 -0.527008 0.141839 
18 2 8 13.6147 -13.6695 -14.2644 1.01694 -0.748436 -1.01118 
19 2 9 14.2747 -12.9612 -14.4734 1.21435 -0.448947 -0.462051 
20 2 10 14.92 -12.2812 -14.6824 1.62786 -0.115806 -1.125 
79 8 9 -0.480112 -0.188531 -11.8459 -0.343668 -0.572803 -1.61345 
172 18 2 -19.3662 2.37627 -11.8256 -0.688302 -0.857112 -0.191379 
173 18 3 18.847 2.47799 -12.6389 0.572432 -0.232975 1.44902 
46 5 6 -15.9653 15.4535 -13.031 0.81378 0.00630311 -0.766842 
97 10 7 -8.98359 -18.5597 -11.7599 1.10568 -0.875702 0.00148339 
137 14 7 16.6449 -15.9221 -11.9783 0.206756 0.438301 -0.297273 
78 8 8 -0.690795 0.492745 -11.1513 0.429902 0.112836 -0.146454 
171 18 1 -18.8641 2.24713 -10.9746 -0.944616 0.755553 -0.331908 
45 5 5 -15.9672 15.0191 -12.2264 0.271525 0.0652738 0.322482 
98 10 8 -9.27677 -19.3303 -11.2414 -0.334274 1.38983 -0.502394 
136 14 6 15.8027 -16.0485 -11.5281 -0.112624 0.14252 -0.269087 
77 8 7 -0.915366 1.10927 -10.4623 -0.224917 0.366594 0.409698 
44 5 4 -15.6246 15.4725 -11.4302 0.154842 -0.202844 0.587475 
110 11 10 7.29165 18.2072 -10.7159 -0.528182 -0.267692 -0.691902 
99 10 9 -9.55114 18.6265 -10.7177 0.285383 -0.136995 -0.453378 
135 14 5 15.2203 -15.4161 -10.9979 0.207776 0.891838 -0.130458 
76 8 6 -1.11242 1.69855 -9.72573 0.284114 -0.413964 0.292522 
43 5 3 -15.2234 15.9366 -10.6685 0.615743 -0.783108 1.28074 
109 11 9 7.55828 17.4519 -10.1375 -0.620076 -0.832473 0.519301 
100 10 10 -9.84614 17.8469 -10.1834 0.280008 0.855927 0.942486 
42 5 2 -14.8156 16.3934 -9.87809 -0.371883 0.349809 0.922252 
108 11 8 7.82066 16.6833 -9.564 0.0918334 -0.65177 -0.605701 
134 14 4 15.7251 -15.9246 -10.3515 -0.527502 -0.00181676 0.559648 
75 8 5 -0.213652 2.10923 -9.58493 0.0601065 -0.703453 -0.220576 
74 8 4 0.550245 2.71375 -9.84218 0.209088 0.505358 0.155489 
101 11 1 12.1637 11.8774 -9.03227 0.00266482 -0.177201 0.947044 
102 11 2 11.3735 12.4806 -8.9252 0.414881 0.645768 0.337858 
103 11 3 10.5591 13.0876 -8.80395 0.77476 0.91094 0.380589 
104 11 4 9.76657 13.6608 -8.68762 -0.854033 -0.539898 -1.5565 
41 5 1 -14.3922 16.8507 -9.10248 -0.707215 -0.642459 0.279236 
107 11 7 8.10713 15.9011 -8.99924 -0.242728 -0.874823 0.0314839 
133 14 3 16.2439 -16.4296 -9.69751 0.105046 0.168122 -0.226328 
73 8 3 1.29809 3.28343 -10.0898 -1.09317 0.239828 0.16043 
72 8 2 2.05827 3.86334 -10.352 1.56951 -0.783532 -0.0934647 
71 8 1 2.81961 4.37053 -10.5715 0.656643 0.362146 -0.406268 
105 11 5 8.98366 14.227 -8.58775 0.386472 -0.420965 0.115032 
106 11 6 8.37339 15.1383 -8.43922 -0.0149301 0.716988 -0.056385 
132 14 2 16.7513 -16.9062 -9.03296 -0.612257 -0.72619 -0.422775 
131 14 1 17.2712 -17.411 -8.33615 0.138648 0.0469908 -0.144819 
89 9 9 -9.04547 -12.0361 -6.8264 0.771301 -0.644986 1.44821 
90 9 10 -8.09887 -11.7859 -6.93121 -0.139943 -0.30052 0.0517762 
88 9 8 -9.98858 -12.2976 -6.72525 -0.0689175 0.00281157 0.362861 
85 9 5 -12.7269 -12.9308 -5.99091 -1.7243 -0.208331 -1.04275 
86 9 6 -11.8197 -12.9462 -6.3912 0.630633 -0.800904 0.409858 
87 9 7 -10.9132 -12.5916 -6.57615 1.93367 0.584653 -0.00401565 
84 9 4 -13.2692 -12.3233 -5.4134 -0.628769 0.67856 0.710238 
83 9 3 -13.8733 -11.7497 -4.88218 1.12268 -0.41124 -0.967666 
82 9 2 -14.4949 -11.1658 -4.36893 1.25799 0.837598 -0.861597 
81 9 1 -15.0621 -10.6046 -3.8668 -0.400063 -0.526608 0.230731 
30 3 10 -13.7484 -8.30697 -2.88207 -0.140645 0.597993 0.955032 
29 3 9 -13.4806 -8.47567 -1.93229 0.310733 -0.485707 0.74696 
27 3 7 -12.9919 -8.74148 -0.0525368 0.00264431 -1.30385 -0.188347 
28 3 8 -13.2136 -8.63355 -0.966708 -0.187984 -0.282587 -0.612669 
26 3 6 -12.7971 -8.83888 0.92433 -0.827425 -0.706361 0.0079828 
111 12 1 8.78632 -0.0573268 -1.72985 -0.0254295 -0.802364 -0.165581 
25 3 5 -12.1987 -8.28487 1.46194 0.0841093 0.133164 0.538156 
24 3 4 -12.728 -7.46817 1.35575 0.593913 -0.89047 0.33281 
112 12 2 8.51819 -0.992351 -1.44532 0.335076 -0.516166 0.51782 
23 3 3 -13.2368 -6.67446 1.27588 -0.265232 -0.192691 -1.37427 
114 12 4 8.00428 -2.75435 -0.875057 0.596618 0.187478 1.06879 
113 12 3 8.24825 -1.86811 -1.15923 -0.577597 -0.494327 -0.689419 
190 19 10 5.02913 -10.9946 2.49058 0.34198 -1.06169 -0.00170613 
22 3 2 -13.7496 -5.81452 1.18449 0.30664 -1.41117 0.390429 
21 3 1 -14.2389 -4.98665 1.09357 -0.534804 -0.131068 0.721226 
115 12 5 7.78743 -3.63593 -0.61142 0.0496336 -0.557664 0.732768 
189 19 9 4.32289 -10.4271 2.80932 -0.91282 -0.355157 -0.3259 
116 12 6 7.56387 -4.69284 -0.472899 -0.373514 -0.444327 0.78714 
188 19 8 3.58637 -9.8669 3.15668 0.0926336 -0.387679 1.50647 
117 12 7 7.47939 -5.16735 0.359615 0.606458 -1.36364 -1.94083 
187 19 7 2.8796 -9.32061 3.4927 -1.99904 0.232831 -0.315738 
186 19 6 2.15734 -8.73229 3.84141 0.558015 -0.179055 0.155899 
118 12 8 7.34389 -5.6389 1.26715 -1.14099 -0.712946 -0.61711 
141 15 1 -10.0368 4.29761 2.88273 0.302466 -0.402702 -0.43482 
185 19 5 1.53358 -8.3441 3.24333 -0.146632 0.445965 -1.05625 
184 19 4 2.26789 -7.71691 3.26425 0.560607 -0.466134 -0.589111 
183 19 3 2.99555 -7.06618 3.28473 -0.151654 -0.136938 0.430165 
119 12 9 7.266 -6.12071 2.13866 1.33894 -0.603004 0.716017 
143 15 3 -11.333 3.09319 3.79347 -0.0486398 1.36697 -1.69222 
142 15 2 -10.6872 3.69978 3.36402 -0.403563 -1.25478 -0.298314 
182 19 2 3.74515 -6.43744 3.31566 0.573883 -1.24091 0.239828 
181 19 1 4.51199 -5.78294 3.35494 0.777799 0.43893 -0.612725 
120 12 10 7.15647 -6.60343 3.01947 0.197071 -0.36661 -0.180765 
147 15 7 -14.1381 1.17354 4.13058 1.26543 -1.05834 0.622018 
146 15 6 -13.2637 1.16888 4.50996 0.796233 -0.689753 0.148816 
144 15 4 -11.9597 2.47689 4.23778 -0.0746246 -0.448263 0.256827 
149 15 9 -15.9722 1.23551 3.27854 -0.408475 -0.344404 -1.97011 