LAMMPS nunchunk data file 

5000  atoms          
4500  bonds          
4000  angles         
0  dihedrals      
0  impropers    

10 atom types     
9  bond types     
8  angle types    
0  dihedral types 
0  improper types 

-50.000000 50.000000 xlo xhi  
-50.000000 50.000000 ylo yhi  
-50.000000 50.000000 zlo zhi  

Masses

	 1  1.0 
	 2  1.0 
	 3  1.0 
	 4  1.0 
	 5  1.0 
	 6  1.0 
	 7  1.0 
	 8  1.0 
	 9  1.0 
	 10 1.0 

Atoms 

	 1 1 1 42.576996059949494 4.357008959824804 30.43659275489915 0 0 0 
	 2 1 2 41.817807138485044 4.970741134433268 30.52241232944955 0 0 0 
	 3 1 3 41.058618217020594 5.584473309041733 30.608231903999958 0 0 0 
	 4 1 4 40.299429295556145 6.198205483650197 30.69405147855036 0 0 0 
	 5 1 5 39.5402403740917 6.811937658258662 30.779871053100763 0 0 0 
	 6 1 6 38.78105145262725 7.4256698328671265 30.86569062765117 0 0 0 
	 7 1 7 38.0218625311628 8.03940200747559 30.951510202201572 0 0 0 
	 8 1 8 37.26267360969835 8.653134182084056 31.037329776751974 0 0 0 
	 9 1 9 36.503484688233904 9.26686635669252 31.12314935130238 0 0 0 
	 10 1 10 35.744295766769454 9.880598531300986 31.208968925852783 0 0 0 
	 11 2 1 5.816086750971139 38.61353989362398 -4.164237192926123 0 0 0 
	 12 2 2 5.402554552872865 38.98441319320249 -4.971605830411971 0 0 0 
	 13 2 3 4.989022354774591 39.35528649278101 -5.778974467897818 0 0 0 
	 14 2 4 4.5754901566763175 39.726159792359525 -6.586343105383666 0 0 0 
	 15 2 5 4.161957958578044 40.097033091938044 -7.393711742869513 0 0 0 
	 16 2 6 3.74842576047977 40.46790639151656 -8.20108038035536 0 0 0 
	 17 2 7 3.334893562381496 40.83877969109508 -9.008449017841208 0 0 0 
	 18 2 8 2.9213613642832232 41.20965299067359 -9.815817655327056 0 0 0 
	 19 2 9 2.507829166184949 41.58052629025211 -10.623186292812903 0 0 0 
	 20 2 10 2.0942969680866748 41.95139958983062 -11.43055493029875 0 0 0 
	 21 3 1 -38.01574773734509 1.5941141110378587 33.439678007723515 0 0 0 
	 22 3 2 -37.16158545718957 2.02984360854305 33.23732533498754 0 0 0 
	 23 3 3 -36.307423177034046 2.4655731060482404 33.03497266225156 0 0 0 
	 24 3 4 -35.45326089687852 2.9013026035534315 32.832619989515585 0 0 0 
	 25 3 5 -34.599098616723 3.3370321010586226 32.63026731677961 0 0 0 
	 26 3 6 -33.74493633656748 3.772761598563814 32.427914644043625 0 0 0 
	 27 3 7 -32.890774056411956 4.208491096069004 32.22556197130765 0 0 0 
	 28 3 8 -32.036611776256436 4.644220593574195 32.02320929857167 0 0 0 
	 29 3 9 -31.18244949610091 5.079950091079386 31.820856625835695 0 0 0 
	 30 3 10 -30.328287215945387 5.515679588584579 31.61850395309972 0 0 0 
	 31 4 1 -14.613355403113781 13.041180292284372 8.610902811258702 0 0 0 
	 32 4 2 -14.125178000776824 13.872638071915782 8.786290338004322 0 0 0 
	 33 4 3 -13.637000598439865 14.704095851547192 8.961677864749943 0 0 0 
	 34 4 4 -13.148823196102908 15.535553631178603 9.137065391495563 0 0 0 
	 35 4 5 -12.660645793765951 16.36701141081001 9.312452918241183 0 0 0 
	 36 4 6 -12.172468391428993 17.198469190441422 9.487840444986803 0 0 0 
	 37 4 7 -11.684290989092036 18.029926970072832 9.663227971732423 0 0 0 
	 38 4 8 -11.196113586755079 18.861384749704243 9.838615498478045 0 0 0 
	 39 4 9 -10.707936184418122 19.692842529335653 10.014003025223664 0 0 0 
	 40 4 10 -10.219758782081163 20.524300308967064 10.189390551969286 0 0 0 
	 41 5 1 -1.3079784752859647 14.92449495102488 33.78313038683074 0 0 0 
	 42 5 2 -2.21134071405732 15.265815978805538 33.94997349144331 0 0 0 
	 43 5 3 -3.114702952828675 15.607137006586198 34.11681659605587 0 0 0 
	 44 5 4 -4.01806519160003 15.948458034366856 34.28365970066844 0 0 0 
	 45 5 5 -4.921427430371386 16.289779062147517 34.450502805281005 0 0 0 
	 46 5 6 -5.824789669142741 16.631100089928175 34.61734590989357 0 0 0 
	 47 5 7 -6.728151907914096 16.972421117708834 34.78418901450614 0 0 0 
	 48 5 8 -7.6315141466854515 17.313742145489492 34.9510321191187 0 0 0 
	 49 5 9 -8.534876385456807 17.65506317327015 35.11787522373127 0 0 0 
	 50 5 10 -9.438238624228163 17.99638420105081 35.284718328343835 0 0 0 
	 51 6 1 25.798650252712385 11.474188247554318 0.44849681655220186 0 0 0 
	 52 6 2 26.115978003403054 12.400919336578138 0.4780364048758164 0 0 0 
	 53 6 3 26.43330575409372 13.327650425601956 0.5075759931994309 0 0 0 
	 54 6 4 26.75063350478439 14.254381514625774 0.5371155815230455 0 0 0 
	 55 6 5 27.067961255475055 15.181112603649593 0.56665516984666 0 0 0 
	 56 6 6 27.385289006165724 16.107843692673413 0.5961947581702742 0 0 0 
	 57 6 7 27.702616756856393 17.03457478169723 0.6257343464938891 0 0 0 
	 58 6 8 28.01994450754706 17.96130587072105 0.6552739348175036 0 0 0 
	 59 6 9 28.33727225823773 18.888036959744866 0.6848135231411181 0 0 0 
	 60 6 10 28.654600008928398 19.814768048768688 0.7143531114647326 0 0 0 
	 61 7 1 -4.273197413447283 -9.508026669327974 -30.718456105792292 0 0 0 
	 62 7 2 -5.168995234141235 -9.903225887884169 -30.67645798568509 0 0 0 
	 63 7 3 -6.064793054835187 -10.298425106440362 -30.634459865577888 0 0 0 
	 64 7 4 -6.960590875529141 -10.693624324996557 -30.59246174547069 0 0 0 
	 65 7 5 -7.8563886962230916 -11.088823543552751 -30.550463625363488 0 0 0 
	 66 7 6 -8.752186516917044 -11.484022762108946 -30.508465505256286 0 0 0 
	 67 7 7 -9.647984337610996 -11.879221980665141 -30.466467385149087 0 0 0 
	 68 7 8 -10.543782158304948 -12.274421199221335 -30.424469265041886 0 0 0 
	 69 7 9 -11.4395799789989 -12.66962041777753 -30.382471144934684 0 0 0 
	 70 7 10 -12.335377799692854 -13.064819636333723 -30.34047302482748 0 0 0 
	 71 8 1 30.830081523198103 -2.8892323301257683 -23.162160014306433 0 0 0 
	 72 8 2 30.369371015077405 -2.6317524223776063 -23.98790205926549 0 0 0 
	 73 8 3 29.908660506956707 -2.3742725146294443 -24.81364410422455 0 0 0 
	 74 8 4 29.447949998836012 -2.116792606881283 -25.639386149183608 0 0 0 
	 75 8 5 28.987239490715314 -1.8593126991331208 -26.465128194142665 0 0 0 
	 76 8 6 28.526528982594616 -1.601832791384959 -27.29087023910172 0 0 0 
	 77 8 7 28.06581847447392 -1.3443528836367973 -28.116612284060782 0 0 0 
	 78 8 8 27.605107966353224 -1.0868729758886357 -28.94235432901984 0 0 0 
	 79 8 9 27.144397458232525 -0.8293930681404733 -29.7680963739789 0 0 0 
	 80 8 10 26.683686950111827 -0.5719131603923118 -30.593838418937956 0 0 0 
	 81 9 1 24.369250086805362 25.435474547380878 -29.75444173582438 0 0 0 
	 82 9 2 25.25745324020184 25.044927844750347 -29.892167664250973 0 0 0 
	 83 9 3 26.145656393598323 24.654381142119814 -30.02989359267757 0 0 0 
	 84 9 4 27.033859546994805 24.263834439489283 -30.167619521104164 0 0 0 
	 85 9 5 27.922062700391283 23.87328773685875 -30.30534544953076 0 0 0 
	 86 9 6 28.81026585378776 23.48274103422822 -30.443071377957356 0 0 0 
	 87 9 7 29.698469007184244 23.092194331597685 -30.58079730638395 0 0 0 
	 88 9 8 30.586672160580726 22.701647628967155 -30.718523234810547 0 0 0 
	 89 9 9 31.474875313977204 22.31110092633662 -30.85624916323714 0 0 0 
	 90 9 10 32.36307846737368 21.92055422370609 -30.993975091663735 0 0 0 
	 91 10 1 28.8323538372236 -13.229580608843584 39.222563928726416 0 0 0 
	 92 10 2 29.400456033862543 -13.634636273052688 39.91074254149067 0 0 0 
	 93 10 3 29.968558230501483 -14.039691937261791 40.59892115425492 0 0 0 
	 94 10 4 30.536660427140426 -14.444747601470896 41.28709976701917 0 0 0 
	 95 10 5 31.10476262377937 -14.84980326568 41.975278379783425 0 0 0 
	 96 10 6 31.67286482041831 -15.254858929889103 42.66345699254768 0 0 0 
	 97 10 7 32.24096701705725 -15.659914594098208 43.35163560531193 0 0 0 
	 98 10 8 32.80906921369619 -16.064970258307312 44.03981421807618 0 0 0 
	 99 10 9 33.37717141033514 -16.470025922516417 44.727992830840435 0 0 0 
	 100 10 10 33.94527360697408 -16.87508158672552 45.41617144360468 0 0 0 
	 101 11 1 -5.870097035347799 -42.380401979477696 44.232098836245285 0 0 0 
	 102 11 2 -4.979975283968572 -42.786558162855854 44.17623809488549 0 0 0 
	 103 11 3 -4.089853532589345 -43.19271434623401 44.12037735352569 0 0 0 
	 104 11 4 -3.199731781210118 -43.59887052961217 44.064516612165896 0 0 0 
	 105 11 5 -2.3096100298308904 -44.00502671299033 44.008655870806095 0 0 0 
	 106 11 6 -1.419488278451663 -44.41118289636848 43.9527951294463 0 0 0 
	 107 11 7 -0.5293665270724368 -44.81733907974664 43.8969343880865 0 0 0 
	 108 11 8 0.3607552243067911 -45.223495263124796 43.841073646726706 0 0 0 
	 109 11 9 1.250876975686018 -45.629651446502955 43.785212905366905 0 0 0 
	 110 11 10 2.140998727065245 -46.03580762988111 43.72935216400711 0 0 0 
	 111 12 1 -10.719466937988598 26.109336166644937 -11.408543475600874 0 0 0 
	 112 12 2 -11.511958774661217 25.603050389592017 -11.132805555174286 0 0 0 
	 113 12 3 -12.304450611333834 25.096764612539094 -10.8570676347477 0 0 0 
	 114 12 4 -13.096942448006454 24.590478835486174 -10.581329714321113 0 0 0 
	 115 12 5 -13.889434284679073 24.084193058433254 -10.305591793894525 0 0 0 
	 116 12 6 -14.68192612135169 23.57790728138033 -10.029853873467937 0 0 0 
	 117 12 7 -15.47441795802431 23.07162150432741 -9.754115953041351 0 0 0 
	 118 12 8 -16.26690979469693 22.56533572727449 -9.478378032614764 0 0 0 
	 119 12 9 -17.059401631369546 22.05904995022157 -9.202640112188176 0 0 0 
	 120 12 10 -17.851893468042164 21.552764173168647 -8.926902191761588 0 0 0 
	 121 13 1 48.31029868869795 44.524506928128375 15.730387954362325 0 0 0 
	 122 13 2 47.55121276172906 44.00343062855314 15.39472734377662 0 0 0 
	 123 13 3 46.79212683476018 43.482354328977905 15.059066733190914 0 0 0 
	 124 13 4 46.033040907791296 42.96127802940266 14.723406122605208 0 0 0 
	 125 13 5 45.27395498082241 42.44020172982743 14.387745512019503 0 0 0 
	 126 13 6 44.51486905385353 41.919125430252194 14.052084901433798 0 0 0 
	 127 13 7 43.755783126884644 41.39804913067696 13.716424290848094 0 0 0 
	 128 13 8 42.99669719991576 40.87697283110172 13.380763680262389 0 0 0 
	 129 13 9 42.23761127294688 40.35589653152648 13.045103069676683 0 0 0 
	 130 13 10 41.47852534597799 39.83482023195125 12.70944245909098 0 0 0 
	 131 14 1 6.629142390815224 -8.059221888040124 -12.675542687534335 0 0 0 
	 132 14 2 7.280726671281252 -8.220053433363587 -13.389665323695965 0 0 0 
	 133 14 3 7.932310951747281 -8.380884978687048 -14.103787959857593 0 0 0 
	 134 14 4 8.58389523221331 -8.54171652401051 -14.817910596019223 0 0 0 
	 135 14 5 9.235479512679337 -8.702548069333973 -15.532033232180853 0 0 0 
	 136 14 6 9.887063793145366 -8.863379614657434 -16.246155868342484 0 0 0 
	 137 14 7 10.538648073611395 -9.024211159980897 -16.96027850450411 0 0 0 
	 138 14 8 11.190232354077423 -9.18504270530436 -17.67440114066574 0 0 0 
	 139 14 9 11.841816634543452 -9.345874250627823 -18.38852377682737 0 0 0 
	 140 14 10 12.493400915009481 -9.506705795951284 -19.102646412989 0 0 0 
	 141 15 1 24.275791787159317 36.139277139536794 -28.230044512165996 0 0 0 
	 142 15 2 24.16772435152764 35.428955810268896 -27.563587432870506 0 0 0 
	 143 15 3 24.059656915895964 34.71863448100099 -26.89713035357502 0 0 0 
	 144 15 4 23.951589480264285 34.00831315173309 -26.23067327427953 0 0 0 
	 145 15 5 23.843522044632607 33.297991822465185 -25.564216194984038 0 0 0 
	 146 15 6 23.735454609000932 32.58767049319729 -24.897759115688547 0 0 0 
	 147 15 7 23.627387173369254 31.877349163929384 -24.23130203639306 0 0 0 
	 148 15 8 23.519319737737575 31.167027834661486 -23.56484495709757 0 0 0 
	 149 15 9 23.411252302105897 30.456706505393583 -22.89838787780208 0 0 0 
	 150 15 10 23.303184866474222 29.74638517612568 -22.231930798506593 0 0 0 
	 151 16 1 -42.64302322933553 -35.838840973933316 4.941924594169366 0 0 0 
	 152 16 2 -42.77268828901548 -35.12580337936845 5.601594482094645 0 0 0 
	 153 16 3 -42.90235334869542 -34.41276578480359 6.261264370019922 0 0 0 
	 154 16 4 -43.032018408375365 -33.69972819023872 6.9209342579452 0 0 0 
	 155 16 5 -43.161683468055315 -32.98669059567386 7.580604145870478 0 0 0 
	 156 16 6 -43.29134852773526 -32.273653001109 8.240274033795757 0 0 0 
	 157 16 7 -43.4210135874152 -31.56061540654413 8.899943921721034 0 0 0 
	 158 16 8 -43.55067864709515 -30.847577811979267 9.559613809646311 0 0 0 
	 159 16 9 -43.68034370677509 -30.134540217414404 10.21928369757159 0 0 0 
	 160 16 10 -43.810008766455034 -29.42150262284954 10.878953585496866 0 0 0 
	 161 17 1 39.23865963581853 -34.44369110868249 -12.66583629530016 0 0 0 
	 162 17 2 38.637501547776026 -35.202855985617965 -12.816427273810254 0 0 0 
	 163 17 3 38.036343459733516 -35.96202086255344 -12.967018252320349 0 0 0 
	 164 17 4 37.43518537169101 -36.72118573948891 -13.117609230830443 0 0 0 
	 165 17 5 36.8340272836485 -37.48035061642438 -13.268200209340538 0 0 0 
	 166 17 6 36.232869195606 -38.23951549335985 -13.418791187850633 0 0 0 
	 167 17 7 35.63171110756349 -38.998680370295325 -13.569382166360727 0 0 0 
	 168 17 8 35.03055301952099 -39.7578452472308 -13.71997314487082 0 0 0 
	 169 17 9 34.42939493147848 -40.517010124166276 -13.870564123380916 0 0 0 
	 170 17 10 33.828236843435974 -41.27617500110175 -14.021155101891011 0 0 0 
	 171 18 1 -18.60923282721263 34.794929711491285 32.10057614332925 0 0 0 
	 172 18 2 -19.272205689898154 35.49011844430851 31.90672153516493 0 0 0 
	 173 18 3 -19.93517855258368 36.185307177125736 31.71286692700061 0 0 0 
	 174 18 4 -20.598151415269204 36.88049590994296 31.519012318836296 0 0 0 
	 175 18 5 -21.26112427795473 37.57568464276019 31.325157710671977 0 0 0 
	 176 18 6 -21.924097140640253 38.27087337557741 31.13130310250766 0 0 0 
	 177 18 7 -22.587070003325778 38.96606210839464 30.93744849434334 0 0 0 
	 178 18 8 -23.250042866011302 39.66125084121186 30.74359388617902 0 0 0 
	 179 18 9 -23.913015728696827 40.35643957402908 30.5497392780147 0 0 0 
	 180 18 10 -24.575988591382355 41.05162830684631 30.355884669850386 0 0 0 
	 181 19 1 49.44513956750591 -47.21997407661409 2.7061718674575075 0 0 0 
	 182 19 2 49.067662840255515 -48.10488468941693 2.5195049776959704 0 0 0 
	 183 19 3 48.690186113005126 -48.98979530221976 2.332838087934433 0 0 0 
	 184 19 4 48.31270938575473 -49.874705915022595 2.1461711981728957 0 0 0 
	 185 19 5 47.93523265850434 -50.75961652782543 1.9595043084113586 0 0 0 
	 186 19 6 47.55775593125394 -51.64452714062826 1.7728374186498208 0 0 0 
	 187 19 7 47.180279204003554 -52.5294377534311 1.586170528888284 0 0 0 
	 188 19 8 46.80280247675316 -53.414348366233924 1.399503639126746 0 0 0 
	 189 19 9 46.42532574950277 -54.29925897903676 1.2128367493652095 0 0 0 
	 190 19 10 46.04784902225237 -55.18416959183959 1.026169859603671 0 0 0 
	 191 20 1 -25.536270882334012 -2.9558872575402684 26.192252148789418 0 0 0 
	 192 20 2 -26.18567291994222 -2.22482207047531 26.257218954251794 0 0 0 
	 193 20 3 -26.835074957550425 -1.4937568834103516 26.32218575971417 0 0 0 
	 194 20 4 -27.484476995158634 -0.7626916963453931 26.387152565176542 0 0 0 
	 195 20 5 -28.133879032766842 -0.03162650928043487 26.45211937063892 0 0 0 
	 196 20 6 -28.783281070375047 0.6994386777845243 26.517086176101294 0 0 0 
	 197 20 7 -29.432683107983255 1.430503864849482 26.58205298156367 0 0 0 
	 198 20 8 -30.082085145591464 2.1615690519144413 26.647019787026043 0 0 0 
	 199 20 9 -30.73148718319967 2.8926342389793986 26.71198659248842 0 0 0 
	 200 20 10 -31.380889220807877 3.623699426044357 26.776953397950795 0 0 0 
	 201 21 1 -0.3534756009750173 -34.989017413041466 -46.825318141787456 0 0 0 
	 202 21 2 0.5051162338319006 -34.78738979810065 -46.398040285941676 0 0 0 
	 203 21 3 1.3637080686388185 -34.58576218315984 -45.97076243009589 0 0 0 
	 204 21 4 2.2222999034457365 -34.38413456821902 -45.54348457425011 0 0 0 
	 205 21 5 3.0808917382526544 -34.18250695327821 -45.11620671840433 0 0 0 
	 206 21 6 3.939483573059572 -33.98087933833739 -44.68892886255855 0 0 0 
	 207 21 7 4.79807540786649 -33.77925172339658 -44.26165100671276 0 0 0 
	 208 21 8 5.656667242673407 -33.57762410845576 -43.83437315086698 0 0 0 
	 209 21 9 6.5152590774803265 -33.37599649351494 -43.4070952950212 0 0 0 
	 210 21 10 7.373850912287244 -33.17436887857413 -42.97981743917542 0 0 0 
	 211 22 1 22.39480258952141 13.652034335678987 11.220705379274165 0 0 0 
	 212 22 2 22.73882458465002 13.72642853790673 12.135316974183517 0 0 0 
	 213 22 3 23.082846579778625 13.80082274013447 13.04992856909287 0 0 0 
	 214 22 4 23.426868574907232 13.875216942362211 13.964540164002223 0 0 0 
	 215 22 5 23.77089057003584 13.949611144589953 14.879151758911577 0 0 0 
	 216 22 6 24.114912565164445 14.024005346817694 15.793763353820932 0 0 0 
	 217 22 7 24.458934560293052 14.098399549045435 16.70837494873028 0 0 0 
	 218 22 8 24.80295655542166 14.172793751273177 17.622986543639634 0 0 0 
	 219 22 9 25.146978550550266 14.247187953500918 18.53759813854899 0 0 0 
	 220 22 10 25.491000545678872 14.32158215572866 19.452209733458343 0 0 0 
	 221 23 1 -18.879777360970184 26.247088708132626 8.80522734589766 0 0 0 
	 222 23 2 -18.181675683101098 25.732720953114644 8.348631397652246 0 0 0 
	 223 23 3 -17.483574005232015 25.218353198096658 7.892035449406832 0 0 0 
	 224 23 4 -16.78547232736293 24.703985443078675 7.435439501161419 0 0 0 
	 225 23 5 -16.087370649493845 24.189617688060693 6.978843552916004 0 0 0 
	 226 23 6 -15.389268971624759 23.67524993304271 6.52224760467059 0 0 0 
	 227 23 7 -14.691167293755676 23.160882178024725 6.065651656425177 0 0 0 
	 228 23 8 -13.99306561588659 22.646514423006742 5.609055708179763 0 0 0 
	 229 23 9 -13.294963938017505 22.13214666798876 5.15245975993435 0 0 0 
	 230 23 10 -12.59686226014842 21.617778912970778 4.695863811688936 0 0 0 
	 231 24 1 -14.69525091527386 -17.44777334217541 -13.743288465812608 0 0 0 
	 232 24 2 -14.834612432184272 -17.49755338585814 -12.774526206609982 0 0 0 
	 233 24 3 -14.973973949094685 -17.54733342954087 -11.805763947407357 0 0 0 
	 234 24 4 -15.113335466005095 -17.5971134732236 -10.837001688204733 0 0 0 
	 235 24 5 -15.252696982915507 -17.646893516906335 -9.868239429002106 0 0 0 
	 236 24 6 -15.39205849982592 -17.696673560589065 -8.89947716979948 0 0 0 
	 237 24 7 -15.531420016736332 -17.746453604271796 -7.930714910596857 0 0 0 
	 238 24 8 -15.670781533646744 -17.796233647954526 -6.96195265139423 0 0 0 
	 239 24 9 -15.810143050557155 -17.846013691637257 -5.993190392191605 0 0 0 
	 240 24 10 -15.949504567467567 -17.895793735319987 -5.02442813298898 0 0 0 
	 241 25 1 -25.7212238399006 -33.816484198455335 -6.804055351590632 0 0 0 
	 242 25 2 -26.064898533905126 -33.95668665508939 -7.71104541540317 0 0 0 
	 243 25 3 -26.40857322790965 -34.09688911172345 -8.618035479215706 0 0 0 
	 244 25 4 -26.752247921914176 -34.237091568357506 -9.525025543028246 0 0 0 
	 245 25 5 -27.095922615918703 -34.37729402499156 -10.432015606840782 0 0 0 
	 246 25 6 -27.439597309923226 -34.51749648162562 -11.33900567065332 0 0 0 
	 247 25 7 -27.783272003927753 -34.657698938259685 -12.245995734465858 0 0 0 
	 248 25 8 -28.12694669793228 -34.79790139489374 -13.152985798278394 0 0 0 
	 249 25 9 -28.470621391936803 -34.9381038515278 -14.059975862090932 0 0 0 
	 250 25 10 -28.81429608594133 -35.07830630816186 -14.966965925903468 0 0 0 
	 251 26 1 -41.598152717499474 -38.66243233990095 5.6257379871158975 0 0 0 
	 252 26 2 -41.92613566002412 -38.99694346314121 6.486510603920948 0 0 0 
	 253 26 3 -42.25411860254877 -39.33145458638146 7.347283220725998 0 0 0 
	 254 26 4 -42.58210154507343 -39.665965709621716 8.208055837531049 0 0 0 
	 255 26 5 -42.91008448759808 -40.00047683286197 9.0688284543361 0 0 0 
	 256 26 6 -43.238067430122726 -40.334987956102225 9.929601071141152 0 0 0 
	 257 26 7 -43.566050372647375 -40.669499079342486 10.790373687946202 0 0 0 
	 258 26 8 -43.894033315172024 -41.00401020258274 11.65114630475125 0 0 0 
	 259 26 9 -44.22201625769668 -41.338521325822995 12.511918921556303 0 0 0 
	 260 26 10 -44.54999920022133 -41.67303244906325 13.372691538361355 0 0 0 
	 261 27 1 -28.757592086623905 41.44494392086663 7.261574154163519 0 0 0 
	 262 27 2 -29.042689245921608 41.334786065371034 8.19269437015767 0 0 0 
	 263 27 3 -29.327786405219307 41.22462820987544 9.12381458615182 0 0 0 
	 264 27 4 -29.61288356451701 41.11447035437985 10.054934802145969 0 0 0 
	 265 27 5 -29.89798072381471 41.00431249888425 10.986055018140119 0 0 0 
	 266 27 6 -30.18307788311241 40.89415464338865 11.91717523413427 0 0 0 
	 267 27 7 -30.468175042410113 40.78399678789306 12.84829545012842 0 0 0 
	 268 27 8 -30.753272201707812 40.673838932397466 13.77941566612257 0 0 0 
	 269 27 9 -31.038369361005515 40.56368107690187 14.71053588211672 0 0 0 
	 270 27 10 -31.323466520303217 40.45352322140628 15.641656098110872 0 0 0 
	 271 28 1 -35.80024979714579 34.73061782661206 37.30962669342619 0 0 0 
	 272 28 2 -35.1827647298405 35.25469147739271 36.75784865815075 0 0 0 
	 273 28 3 -34.56527966253521 35.77876512817336 36.20607062287531 0 0 0 
	 274 28 4 -33.94779459522992 36.30283877895401 35.65429258759987 0 0 0 
	 275 28 5 -33.33030952792463 36.82691242973466 35.102514552324436 0 0 0 
	 276 28 6 -32.712824460619345 37.35098608051531 34.550736517048996 0 0 0 
	 277 28 7 -32.095339393314056 37.87505973129596 33.998958481773556 0 0 0 
	 278 28 8 -31.477854326008767 38.39913338207661 33.447180446498116 0 0 0 
	 279 28 9 -30.860369258703475 38.92320703285726 32.895402411222676 0 0 0 
	 280 28 10 -30.242884191398186 39.44728068363791 32.343624375947236 0 0 0 
	 281 29 1 34.80210712239845 -0.7316095599383732 11.506183110546175 0 0 0 
	 282 29 2 35.62080631671092 -1.0606534412570126 11.079730588688365 0 0 0 
	 283 29 3 36.439505511023384 -1.389697322575652 10.653278066830554 0 0 0 
	 284 29 4 37.25820470533585 -1.7187412038942913 10.226825544972744 0 0 0 
	 285 29 5 38.076903899648315 -2.0477850852129302 9.800373023114933 0 0 0 
	 286 29 6 38.89560309396078 -2.37682896653157 9.373920501257123 0 0 0 
	 287 29 7 39.71430228827324 -2.705872847850209 8.947467979399313 0 0 0 
	 288 29 8 40.5330014825857 -3.0349167291688484 8.521015457541502 0 0 0 
	 289 29 9 41.35170067689817 -3.3639606104874877 8.09456293568369 0 0 0 
	 290 29 10 42.170399871210634 -3.693004491806127 7.66811041382588 0 0 0 
	 291 30 1 -22.105763916443433 29.997747776107296 -30.299051809596257 0 0 0 
	 292 30 2 -22.099782055243985 30.67860654514438 -31.00388906312497 0 0 0 
	 293 30 3 -22.09380019404454 31.359465314181463 -31.708726316653678 0 0 0 
	 294 30 4 -22.087818332845092 32.04032408321855 -32.41356357018239 0 0 0 
	 295 30 5 -22.081836471645648 32.72118285225563 -33.1184008237111 0 0 0 
	 296 30 6 -22.0758546104462 33.40204162129272 -33.823238077239814 0 0 0 
	 297 30 7 -22.069872749246755 34.082900390329804 -34.52807533076852 0 0 0 
	 298 30 8 -22.063890888047307 34.763759159366884 -35.23291258429724 0 0 0 
	 299 30 9 -22.057909026847863 35.44461792840397 -35.93774983782595 0 0 0 
	 300 30 10 -22.051927165648415 36.12547669744105 -36.642587091354656 0 0 0 
	 301 31 1 -7.638407865148733 30.898728685557654 34.279388386516885 0 0 0 
	 302 31 2 -8.369994273133539 31.42264402274607 33.8911950749946 0 0 0 
	 303 31 3 -9.101580681118344 31.946559359934486 33.50300176347231 0 0 0 
	 304 31 4 -9.83316708910315 32.4704746971229 33.114808451950026 0 0 0 
	 305 31 5 -10.564753497087954 32.994390034311316 32.72661514042774 0 0 0 
	 306 31 6 -11.29633990507276 33.518305371499736 32.33842182890546 0 0 0 
	 307 31 7 -12.027926313057566 34.04222070868815 31.950228517383174 0 0 0 
	 308 31 8 -12.759512721042372 34.56613604587657 31.562035205860887 0 0 0 
	 309 31 9 -13.491099129027177 35.09005138306498 31.1738418943386 0 0 0 
	 310 31 10 -14.222685537011984 35.6139667202534 30.785648582816314 0 0 0 
	 311 32 1 -25.868067311512142 42.19420928164948 33.17312573310998 0 0 0 
	 312 32 2 -26.216663326694437 41.292117488070325 33.33159091589839 0 0 0 
	 313 32 3 -26.565259341876732 40.390025694491165 33.49005609868681 0 0 0 
	 314 32 4 -26.913855357059028 39.48793390091201 33.64852128147522 0 0 0 
	 315 32 5 -27.262451372241323 38.58584210733285 33.80698646426364 0 0 0 
	 316 32 6 -27.611047387423618 37.68375031375369 33.96545164705205 0 0 0 
	 317 32 7 -27.959643402605916 36.78165852017454 34.12391682984046 0 0 0 
	 318 32 8 -28.308239417788208 35.879566726595385 34.28238201262888 0 0 0 
	 319 32 9 -28.656835432970503 34.977474933016225 34.44084719541729 0 0 0 
	 320 32 10 -29.0054314481528 34.075383139437065 34.59931237820571 0 0 0 
	 321 33 1 -46.06461314336001 -25.337480586103055 -49.68961956122915 0 0 0 
	 322 33 2 -46.741352971774155 -24.647175609536284 -49.85056130213295 0 0 0 
	 323 33 3 -47.41809280018829 -23.95687063296951 -50.011503043036754 0 0 0 
	 324 33 4 -48.09483262860243 -23.266565656402733 -50.172444783940556 0 0 0 
	 325 33 5 -48.771572457016575 -22.57626067983596 -50.33338652484436 0 0 0 
	 326 33 6 -49.44831228543072 -21.88595570326919 -50.49432826574816 0 0 0 
	 327 33 7 -50.12505211384485 -21.195650726702414 -50.65527000665196 0 0 0 
	 328 33 8 -50.801791942258994 -20.50534575013564 -50.81621174755576 0 0 0 
	 329 33 9 -51.47853177067313 -19.815040773568867 -50.977153488459564 0 0 0 
	 330 33 10 -52.15527159908727 -19.124735797002096 -51.138095229363365 0 0 0 
	 331 34 1 -16.174254604290827 -10.109313543048104 -3.130414425420447 0 0 0 
	 332 34 2 -15.525623034747586 -9.869656434132825 -3.8248505687325887 0 0 0 
	 333 34 3 -14.876991465204345 -9.629999325217547 -4.51928671204473 0 0 0 
	 334 34 4 -14.228359895661104 -9.390342216302267 -5.213722855356872 0 0 0 
	 335 34 5 -13.579728326117863 -9.150685107386987 -5.908158998669014 0 0 0 
	 336 34 6 -12.931096756574622 -8.91102799847171 -6.602595141981156 0 0 0 
	 337 34 7 -12.28246518703138 -8.67137088955643 -7.297031285293297 0 0 0 
	 338 34 8 -11.63383361748814 -8.43171378064115 -7.991467428605439 0 0 0 
	 339 34 9 -10.985202047944897 -8.192056671725872 -8.685903571917581 0 0 0 
	 340 34 10 -10.336570478401656 -7.952399562810593 -9.380339715229724 0 0 0 
	 341 35 1 10.710414576315019 41.36159597996739 38.570900935334706 0 0 0 
	 342 35 2 9.859895156073424 41.5128815837196 38.10815977454475 0 0 0 
	 343 35 3 9.009375735831831 41.66416718747181 37.645418613754806 0 0 0 
	 344 35 4 8.158856315590237 41.81545279122402 37.18267745296485 0 0 0 
	 345 35 5 7.308336895348642 41.966738394976225 36.7199362921749 0 0 0 
	 346 35 6 6.457817475107047 42.11802399872843 36.25719513138495 0 0 0 
	 347 35 7 5.607298054865454 42.26930960248065 35.794453970595 0 0 0 
	 348 35 8 4.756778634623859 42.42059520623285 35.33171280980505 0 0 0 
	 349 35 9 3.906259214382265 42.57188080998506 34.868971649015094 0 0 0 
	 350 35 10 3.0557397941406705 42.723166413737275 34.40623048822514 0 0 0 
	 351 36 1 -33.81378517348587 -38.58698054372297 -33.991753403742464 0 0 0 
	 352 36 2 -32.85150485648989 -38.44440438045288 -34.11044893520554 0 0 0 
	 353 36 3 -31.889224539493917 -38.30182821718279 -34.22914446666862 0 0 0 
	 354 36 4 -30.92694422249794 -38.15925205391269 -34.3478399981317 0 0 0 
	 355 36 5 -29.964663905501965 -38.016675890642595 -34.46653552959477 0 0 0 
	 356 36 6 -29.002383588505985 -37.8740997273725 -34.585231061057854 0 0 0 
	 357 36 7 -28.04010327151001 -37.73152356410241 -34.70392659252093 0 0 0 
	 358 36 8 -27.077822954514033 -37.58894740083232 -34.82262212398401 0 0 0 
	 359 36 9 -26.115542637518057 -37.44637123756222 -34.94131765544709 0 0 0 
	 360 36 10 -25.15326232052208 -37.303795074292125 -35.06001318691016 0 0 0 
	 361 37 1 10.64728642051106 25.705050366856074 40.29312254916032 0 0 0 
	 362 37 2 10.898619865439382 26.494652985300252 40.81634258356894 0 0 0 
	 363 37 3 11.149953310367707 27.284255603744434 41.33956261797756 0 0 0 
	 364 37 4 11.401286755296029 28.073858222188612 41.86278265238618 0 0 0 
	 365 37 5 11.652620200224353 28.863460840632793 42.386002686794804 0 0 0 
	 366 37 6 11.903953645152676 29.65306345907697 42.90922272120342 0 0 0 
	 367 37 7 12.155287090080998 30.442666077521153 43.43244275561204 0 0 0 
	 368 37 8 12.40662053500932 31.23226869596533 43.95566279002066 0 0 0 
	 369 37 9 12.657953979937645 32.02187131440951 44.47888282442928 0 0 0 
	 370 37 10 12.909287424865969 32.811473932853694 45.0021028588379 0 0 0 
	 371 38 1 -29.394840907144303 -5.856380228650194 4.892804416752905 0 0 0 
	 372 38 2 -30.185199721912152 -5.500706909825391 4.43538837615648 0 0 0 
	 373 38 3 -30.97555853668 -5.1450335910005895 3.977972335560054 0 0 0 
	 374 38 4 -31.76591735144785 -4.789360272175787 3.5205562949636287 0 0 0 
	 375 38 5 -32.5562761662157 -4.433686953350985 3.063140254367203 0 0 0 
	 376 38 6 -33.34663498098355 -4.078013634526182 2.6057242137707783 0 0 0 
	 377 38 7 -34.1369937957514 -3.72234031570138 2.148308173174352 0 0 0 
	 378 38 8 -34.92735261051925 -3.366666996876578 1.6908921325779267 0 0 0 
	 379 38 9 -35.7177114252871 -3.010993678051776 1.233476091981501 0 0 0 
	 380 38 10 -36.50807024005495 -2.655320359226973 0.7760600513850751 0 0 0 
	 381 39 1 -48.40552123875733 -18.427763463687107 -46.04754467451466 0 0 0 
	 382 39 2 -48.013300162401315 -19.00169005363825 -45.356769098361895 0 0 0 
	 383 39 3 -47.6210790860453 -19.57561664358939 -44.665993522209135 0 0 0 
	 384 39 4 -47.22885800968928 -20.149543233540534 -43.975217946056375 0 0 0 
	 385 39 5 -46.83663693333327 -20.723469823491676 -43.28444236990361 0 0 0 
	 386 39 6 -46.44441585697725 -21.29739641344282 -42.59366679375084 0 0 0 
	 387 39 7 -46.052194780621235 -21.87132300339396 -41.90289121759808 0 0 0 
	 388 39 8 -45.65997370426522 -22.4452495933451 -41.21211564144532 0 0 0 
	 389 39 9 -45.2677526279092 -23.019176183296246 -40.521340065292556 0 0 0 
	 390 39 10 -44.87553155155319 -23.593102773247388 -39.83056448913979 0 0 0 
	 391 40 1 -2.9042381332688327 -27.371547318133572 -41.03263981698419 0 0 0 
	 392 40 2 -2.6096976543142496 -26.750911249732162 -40.3337429885063 0 0 0 
	 393 40 3 -2.315157175359666 -26.130275181330756 -39.63484616002842 0 0 0 
	 394 40 4 -2.020616696405083 -25.509639112929346 -38.93594933155053 0 0 0 
	 395 40 5 -1.7260762174504996 -24.889003044527936 -38.23705250307265 0 0 0 
	 396 40 6 -1.4315357384959162 -24.26836697612653 -37.53815567459476 0 0 0 
	 397 40 7 -1.136995259541333 -23.64773090772512 -36.83925884611688 0 0 0 
	 398 40 8 -0.8424547805867499 -23.02709483932371 -36.14036201763899 0 0 0 