LAMMPS (3 Mar 2020)
OMP_NUM_THREADS environment is not set. Defaulting to 1 thread. (../comm.cpp:94)
  using 1 OpenMP thread(s) per MPI task
#SETUP
# Runs on the first loop only
shell del *.dump     # delete all dump files before first run CAREFUL WITH THIS
shell del restart.time*     # delete all current restart files before first run
shell lmp_serial -in in.run_setup     # first run of file, generate first restart file

#VARIABLES
variable N         equal  500 #MUST BE SAME AS SETUP FILE FOR PHASEPLOT
variable len       equal  15  #MUST BE SAME AS SETUP FILE FOR PHASEPLOT
variable T         equal  0.5
variable t_step    equal  0.005 #originally 0.005
variable mix_steps index  50000 50000 50000 50000 50000 50000 50000 50000
variable mix_tau   equal  ${t_step}*${mix_steps}
variable mix_tau   equal  0.005*${mix_steps}
variable mix_tau   equal  0.005*50000
variable run_steps equal  2000000 # steps to run simulation in order to reach steady state
variable run_tau   equal  ${t_step}*${run_steps} # this is the time in LJ units
variable run_tau   equal  0.005*${run_steps} 
variable run_tau   equal  0.005*2000000 
#1000 particles averages 35,000 steps per minute

#LOOP START
label loop  #start loop from here
read_restart restart.time*
  restoring atom style molecular from restart
  orthogonal box = (-50 -50 -50) to (50 50 50)
  1 by 1 by 1 MPI processor grid
  restoring pair style lj/cut from restart
  restoring bond style harmonic from restart
  restoring angle style harmonic from restart
  7500 atoms
  7000 bonds
  6500 angles
  2 = max # of 1-2 neighbors
  2 = max # of 1-3 neighbors
  4 = max # of 1-4 neighbors
  6 = max # of special neighbors
  special bonds CPU = 0.010972 secs
  read_restart CPU = 0.0299201 secs
# this reads in latest restart file, * is wildcard for timestep


# THERMAL
timestep ${t_step}
timestep 0.005
thermo   100
thermo_style custom step time temp press pe ke etotal vol
thermo_modify norm no


# DUMP OUTPUT
dump  1  all custom 50000 output_T_${T}_time_*.dump id mol type x y z vx vy vz
dump  1  all custom 50000 output_T_0.5_time_*.dump id mol type x y z vx vy vz
# dumps all positions etc every N  steps
dump_modify 1 sort id

# FIX
fix 2 all nph iso ${T} ${T} 100   #changed from T = 0.5 to match variable T
fix 2 all nph iso 0.5 ${T} 100   
fix 2 all nph iso 0.5 0.5 100   
fix 3 all langevin ${T} ${T} 1 123456 #as above
fix 3 all langevin 0.5 ${T} 1 123456 
fix 3 all langevin 0.5 0.5 1 123456 
run ${mix_steps}
run 50000
Neighbor list info ...
  update every 1 steps, delay 10 steps, check yes
  max neighbors/atom: 2000, page size: 100000
  master list distance cutoff = 1.42
  ghost atom cutoff = 1.9
  binsize = 0.71, bins = 141 141 141
  1 neighbor lists, perpetual/occasional/extra = 1 0 0
  (1) pair lj/cut, perpetual
      attributes: half, newton on
      pair build: half/bin/newton
      stencil: half/bin/3d/newton
      bin: standard
Per MPI rank memory allocation (min/avg/max) = 21.59 | 21.59 | 21.59 Mbytes
Step Time Temp Press PotEng KinEng TotEng Volume 
       0            0            0 -3.2846779e-15    68538.919            0    68538.919 1000000 
     100          0.5    2.4336913 -0.0059233568     19046.42    27375.377    46421.797    997486.99 
     200            1    1.4180685 0.0049387528    15906.063    15951.144    31857.207    990152.62 
     300          1.5    1.2366792 0.0067431351    10092.892    13910.786    24003.677    979789.05 
     400            2   0.82209498 -0.0026679007    9281.4426    9247.3354    18528.778    969218.33 
     500          2.5   0.68544853 -0.014351891    7893.6884    7710.2678    15603.956    959785.07 
     600            3   0.61553526 0.0080146943    6551.3557    6923.8483    13475.204    950724.94 
     700          3.5   0.60442315 0.0013824102    5783.2299    6798.8538    12582.084    941569.47 
     800            4   0.54322723 -0.00066297026    5706.1497    6110.4915    11816.641    932515.66 
     900          4.5   0.53525104 -0.00057839448    5347.7431    6020.7714    11368.514    923944.98 
    1000            5    0.5116032 0.0030030379    5209.3194    5754.7686    10964.088    915959.82 
    1100          5.5   0.50190247 -0.00063469926    5003.8733      5645.65    10649.523    908435.22 
    1200            6   0.50342683 -0.00051847977    5066.8147    5662.7967    10729.611    901206.66 
    1300          6.5     0.496367 0.00035125899    5065.5664    5583.3842    10648.951    894174.67 
    1400            7   0.50025141 -0.0003414883    5050.5028     5627.078    10677.581    887306.47 
    1500          7.5   0.50455667   0.00157204    5030.4458    5675.5058    10705.952    880593.43 
    1600            8   0.49883596 0.00043292934    5059.5158    5611.1563    10670.672    874025.28 
    1700          8.5   0.50592288 -7.0691469e-06    5077.0769    5690.8735     10767.95    867588.98 
    1800            9   0.49380099 0.0012420196    5078.4247    5554.5204    10632.945    861274.71 
    1900          9.5   0.50208241 -4.4980655e-05     4992.213     5647.674    10639.887    855076.74 
    2000           10   0.50438094 0.00035896862    5051.7231    5673.5289    10725.252    848984.73 
    2100         10.5   0.49893066 0.0014548103    5147.2589    5612.2216     10759.48    842995.68 
    2200           11   0.50275208 -0.00064070131    5031.7186    5655.2068    10686.925    837108.09 
    2300         11.5   0.50473553 0.0013883782    4998.8242    5677.5176    10676.342    831310.73 
    2400           12   0.50410272 -0.0010357154    5005.6576    5670.3994    10676.057    825604.92 
    2500         12.5   0.51226219 0.0014340431    5004.7472    5762.1812    10766.928    819982.89 
    2600           13   0.50805779 -0.00066234107    5037.9599    5714.8881    10752.848     814445.8 
    2700         13.5   0.50723242 0.0013399612    4995.2482    5705.6039    10700.852    808988.65 
    2800           14   0.50503572 0.00081958435    4935.2979    5680.8943    10616.192    803610.95 
    2900         14.5   0.49999413 0.00022306986    5022.6191    5624.1839    10646.803    798309.74 
    3000           15   0.51215256 0.00078828135    5051.4321    5760.9481     10812.38    793081.78 
    3100         15.5   0.50762857 0.0010790166    5060.3768      5710.06    10770.437    787923.82 
    3200           16   0.51040431 -0.00032988405    5017.2223    5741.2828    10758.505    782837.15 
    3300         16.5   0.49702368 0.00075115525    5042.3134    5590.7708    10633.084    777815.24 
    3400           17    0.5030673 0.00035084514    5014.4933    5658.7525    10673.246    772858.94 
    3500         17.5   0.49727915 0.00049950896    5037.9075    5593.6445    10631.552    767965.43 
    3600           18   0.50271949 0.00028622915    5023.5829    5654.8402    10678.423    763133.18 
    3700         18.5   0.49263028 0.00035542036    5069.1197    5541.3517    10610.471     758362.8 
    3800           19   0.49661715 0.00084492348    5007.7003     5586.198    10593.898    753650.22 
    3900         19.5   0.49119281 0.00018005645    5110.3215    5525.1823    10635.504    748994.61 
    4000           20   0.50040793 0.00023126419     5003.514    5628.8386    10632.353    744394.42 
    4100         20.5   0.49802296 0.00068604039    4995.4055    5602.0113    10597.417    739849.18 
    4200           21   0.50636354 -9.4011048e-06    4974.8166    5695.8303    10670.647    735357.87 
    4300         21.5   0.49820796 0.00077768623    5030.4726    5604.0922    10634.565     730920.2 
    4400           22   0.49931861 0.0010161907    5005.9658    5616.5854    10622.551    726533.49 
    4500         22.5    0.5004818 -0.0005487493    5003.8912    5629.6695    10633.561    722196.85 
    4600           23   0.50549612 0.0018792819    5058.3685    5686.0731    10744.442    717907.81 
    4700         23.5   0.50139819 -0.0011968002    5045.4207    5639.9775    10685.398    713668.95 
    4800           24   0.50645177 0.0016983515    5009.9505    5696.8227    10706.773    709474.77 
    4900         24.5   0.49764049 -0.00050625927    5070.0955    5597.7091    10667.805     705327.6 
    5000           25   0.51101362 0.0014591568    5089.1497    5748.1366    10837.286     701225.7 
    5100         25.5    0.4983713 0.00039093469    5191.4381    5605.9295    10797.368    697170.35 
    5200           26   0.49800828 -0.00015896724    5109.9303    5601.8461    10711.776    693158.14 
    5300         26.5   0.49594607 0.00074120118    4979.1927    5578.6493    10557.842    689188.58 
    5400           27   0.49374282 0.00041033977    5016.7662    5553.8662    10570.632    685260.75 
    5500         27.5   0.49585424 0.00043125334    5110.0603    5577.6165    10687.677    681374.93 
    5600           28   0.49526159 0.00012867214    5027.9047      5570.95    10598.855    677530.18 
    5700         28.5   0.50233603 0.0006938042    4995.4753    5650.5268    10646.002    673725.49 
    5800           29   0.49408958 0.0010433097    5050.2084    5557.7666    10607.975    669958.18 
    5900         29.5   0.50539134 -0.00039540363    5036.0394    5684.8945    10720.934     666231.3 
    6000           30   0.50197437 0.0011845681    4992.6209    5646.4588     10639.08    662541.18 
    6100         30.5   0.49579911 -8.4411493e-05    5071.0373    5576.9963    10648.034    658889.29 
    6200           31   0.49711917 0.00076401689     5008.983     5591.845    10600.828    655271.93 
    6300         31.5   0.49949637 0.00049316459    5035.8429    5618.5849    10654.428    651691.06 
    6400           32   0.50070629 0.00086064863    5051.0975    5632.1947    10683.292    648145.89 
    6500         32.5   0.49948377 0.00050845598    5047.7903    5618.4432    10666.234    644636.46 
    6600           33   0.49490309 0.00057017987    5125.6564    5566.9174    10692.574    641160.18 
    6700         33.5   0.50257476 -2.382777e-05    5021.1508    5653.2122    10674.363    637718.05 
    6800           34   0.50724828 0.0011528717     5145.225    5705.7823    10851.007    634309.31 
    6900         34.5   0.50091081 0.00033202327     5087.846    5634.4953    10722.341    630933.98 
    7000           35   0.50623874 0.00093595964    5011.3048    5694.4265    10705.731    627589.89 
    7100         35.5   0.50632885 0.0004393696    5021.1339      5695.44    10716.574    624277.32 
    7200           36   0.50705272 0.0013596471    4986.8945    5703.5825    10690.477    620996.39 
    7300         36.5   0.49824298 0.00038822537    4999.9782    5604.4862    10604.464    617745.03 
    7400           37   0.50344084 -9.936739e-05    5090.3224    5662.9543    10753.277     614523.7 
    7500         37.5   0.50638324 0.0013963623    4918.3948    5696.0519    10614.447    611331.53 
    7600           38   0.50335774 0.00098894413    4979.8338    5662.0196    10641.853    608170.63 
    7700         38.5   0.50217166 -0.00013174027    4983.3567    5648.6779    10632.035    605039.59 
    7800           39   0.49904442 0.00046746046    5037.9182    5613.5012    10651.419    601935.15 
    7900         39.5    0.4985116 0.00050137737     5092.202    5607.5078     10699.71    598858.56 
    8000           40   0.49679142 0.00038353657    5037.9132    5588.1583    10626.071    595809.61 
    8100         40.5   0.50548303 0.0007193521    5005.5907    5685.9258    10691.517    592788.27 
    8200           41   0.50552312 0.00088070462    4996.1279    5686.3768    10682.505    589793.67 
    8300         41.5   0.50342846 0.00015483218    5057.4361    5662.8151    10720.251     586826.3 
    8400           42   0.49673363 0.00051436268    5022.9715    5587.5083     10610.48    583884.45 
    8500         42.5   0.50308026 -0.00074960722    4978.9417    5658.8983     10637.84    580968.77 
    8600           43   0.50875589 0.0021884986     5023.087    5722.7406    10745.828    578076.91 
    8700         43.5   0.50301584 -0.00028180738    5034.8588    5658.1737    10693.032     575212.5 
    8800           44   0.49843676 0.0015634517    5057.9341    5606.6659      10664.6    572373.32 
    8900         44.5   0.50421912 -0.0010070417    4972.3883    5671.7088    10644.097    569558.74 
    9000           45   0.50462205 0.0025064804     5026.236    5676.2411    10702.477    566765.96 
    9100         45.5   0.50358539 0.0012193898    4950.3775    5664.5803    10614.958    563999.11 
    9200           46   0.50692768 -0.00042586806    5038.5018     5702.176    10740.678    561255.36 
    9300         46.5   0.50280046 0.0012255836    5046.7868     5655.751    10702.538    558532.95 
    9400           47   0.49772278 -0.00019354627    5100.4671    5598.6347    10699.102    555834.86 
    9500         47.5   0.51060438 0.0009446144    5042.7827    5743.5334    10786.316     553159.3 
    9600           48   0.50240842 -0.00018888254     5107.725    5651.3411    10759.066    550506.06 
    9700         48.5   0.50107666 0.0011238723    5090.0794    5636.3608     10726.44    547875.16 
    9800           49   0.50230935 4.7281712e-06    5204.1919    5650.2268    10854.419    545265.73 
    9900         49.5   0.50545907 -0.00015572492    5075.8521    5685.6563    10761.508    542677.41 
   10000           50   0.49908449 0.0014595862    5077.4301    5613.9519    10691.382    540111.14 
   10100         50.5   0.50335093 4.4638379e-05    4952.7784     5661.943    10614.721    537566.58 
   10200           51   0.49757138 0.00072830857    5004.0728    5596.9317    10601.004    535041.62 
   10300         51.5   0.49395955 0.0013959122    5023.1039     5556.304    10579.408    532535.53 
   10400           52   0.49414942 0.00025128499    4972.4532    5558.4398    10530.893    530051.35 
   10500         52.5   0.49898641 0.0014430784    4993.7296    5612.8487    10606.578    527586.54 
   10600           53   0.49851928 -0.00057844332    4968.7067    5607.5942    10576.301    525142.72 
   10700         53.5   0.49813716  0.002197984    4975.3749    5603.2958    10578.671    522716.06 
   10800           54   0.49534765 0.00022992984    4984.6792     5571.918    10556.597    520310.29 
   10900         54.5   0.49853681 0.0032983295    5037.2679    5607.7913    10645.059    517923.68 
   11000           55   0.50042237 -0.00094738904    5128.9008    5629.0011    10757.902    515557.63 
   11100         55.5   0.50718547 0.00053336353    5050.3467    5705.0758    10755.423    513207.62 
   11200           56   0.50583443 0.0010992176    5005.0135    5689.8786    10694.892    510876.16 
   11300         56.5    0.5018076 0.0010423601    5140.4814    5644.5828    10785.064    508561.74 
   11400           57   0.50895781 0.0012743098    5048.1363    5725.0119    10773.148    506265.98 
   11500         57.5    0.4997367 0.00098630534    5021.6661    5621.2883    10642.954    503988.67 
   11600           58   0.50182019 0.0012927834    4961.3067    5644.7244    10606.031    501728.58 
   11700         58.5   0.50423866 -0.00059661558    5005.5566    5671.9285    10677.485    499486.06 
   11800           59   0.50342835 0.0022483294    5085.2525    5662.8138    10748.066    497259.22 
   11900         59.5    0.5018622 -0.00047709863    4999.9646     5645.197    10645.162    495051.04 
   12000           60   0.48705704 0.00094476849    5039.3795    5478.6611    10518.041    492859.43 
   12100         60.5   0.49403384 5.7572506e-05    5043.5688    5557.1397    10600.709    490683.57 
   12200           61   0.49339121 0.00054445825     5010.685     5549.911    10560.596     488522.8 
   12300         61.5   0.48956701 -0.0014888973    5018.6233    5506.8945    10525.518    486378.77 
   12400           62   0.49593555 0.0014043495    4957.3694     5578.531      10535.9    484250.34 
   12500         62.5   0.49596644  0.001245617    4908.6984    5578.8785    10487.577    482137.77 
   12600           63   0.49968942 -0.00093579054    5014.0037    5620.7565     10634.76    480041.56 
   12700         63.5   0.49420872 0.0018940509    5035.4428    5559.1067     10594.55    477960.31 
   12800           64   0.49790269 0.00023495331    5018.7418    5600.6584      10619.4     475895.9 
   12900         64.5   0.49758552 0.00033757263    4971.1979    5597.0908    10568.289     473846.6 
   13000           65   0.49533345 -0.00037285911    5062.8421    5571.7583      10634.6    471810.84 
   13100         65.5   0.49935749 0.0020086978    5047.0974    5617.0228     10664.12    469789.72 
   13200           66   0.49249853 0.0011782199    5005.0171    5539.8697    10544.887    467784.33 
   13300         66.5   0.48545882 0.00058675538    5086.6914    5460.6835    10547.375    465794.79 
   13400           67   0.49202467 -6.772092e-05    5012.4851    5534.5395    10547.025    463819.09 
   13500         67.5   0.49369097 0.0025256722    4965.8956    5553.2829    10519.178    461856.95 
   13600           68    0.4951633 0.00053616537    5069.8623    5569.8444    10639.707    459909.92 
   13700         68.5   0.50267823 0.0032307918    5032.8747    5654.3761    10687.251    457977.26 
   13800           69   0.49857756 -0.00014002359     5095.259    5608.2497    10703.509    456058.69 
   13900         69.5   0.49897677 0.00010378236    5105.3786    5612.7402    10718.119    454153.38 
   14000           70    0.5010616 0.0020386667     4977.408    5636.1914    10613.599    452259.09 
   14100         70.5   0.49636276 -0.00038810943     5017.428    5583.3365    10600.765    450379.29 
   14200           71   0.49392713 0.0035348585    5014.9002    5555.9393    10570.839    448512.84 
   14300         71.5   0.50077749 -0.0021728868    5052.7246    5632.9956     10685.72    446661.14 
   14400           72   0.49923466 0.0026329562    5076.5066     5615.641    10692.148    444820.08 
   14500         72.5   0.50400232 -0.000229798    5036.4543    5669.2701    10705.724     442992.2 
   14600           73   0.49562291 -0.0009371216    5085.8338    5575.0143    10660.848    441176.18 
   14700         73.5    0.5021633 0.0051409916    5045.2714    5648.5839    10693.855    439371.85 
   14800           74   0.49489295 -0.0013518149    5011.9719    5566.8033    10578.775    437581.93 
   14900         74.5   0.49460521 0.0012481515    5091.3491    5563.5667    10654.916    435803.02 
   15000           75   0.49641246 0.00048091711    5057.5714    5583.8956    10641.467    434036.49 
   15100         75.5   0.50365107 0.0012764498    5025.3479     5665.319    10690.667    432282.35 
   15200           76   0.50205067 0.0018857623    4979.2354     5647.317    10626.552    430539.78 
   15300         76.5    0.5026678 -0.0017017348    5057.7501    5654.2587    10712.009    428809.97 
   15400           77   0.50331396 0.0040776801    5059.9787    5661.5271    10721.506    427089.26 
   15500         77.5   0.50052013 -0.0022234638    5055.0426    5630.1007    10685.143    425381.95 
   15600           78   0.50360909 0.0017970353    5094.5382    5664.8469    10759.385    423684.84 
   15700         78.5   0.50289315 0.00032193752    5147.6915    5656.7936    10804.485    421999.86 
   15800           79   0.50332595 -0.0011449776    4971.8478     5661.662     10633.51    420326.36 
   15900         79.5   0.49666261 0.0037716136    4999.2121    5586.7094    10585.921    418663.69 
   16000           80   0.49733566 -0.0021988056    4990.7102    5594.2801     10584.99    417013.55 
   16100         80.5   0.50413024 0.0048548592    4980.4438     5670.709    10651.153    415372.82 
   16200           81   0.49859667 -0.0022580521    5009.0626    5608.4646    10617.527    413744.69 
   16300         81.5   0.49707647 0.0035999976    5040.6409    5591.3647    10632.006    412125.72 
   16400           82   0.49103585 -0.0025289859    5112.9043    5523.4168    10636.321     410519.3 
   16500         82.5   0.49670319 0.0028938143    4995.6617    5587.1658    10582.828    408921.38 
   16600           83   0.49638636  0.001312591    5047.4973     5583.602    10631.099    407335.25 
   16700         83.5    0.4962709 0.00091632853    5078.7633    5582.3032    10661.066    405758.55 
   16800           84   0.49922129 -0.00014624323     5022.902    5615.4906    10638.393    404192.57 
   16900         84.5   0.49919494 0.0015093659    5011.4915    5615.1943    10626.686     402636.5 
   17000           85   0.49658779 -0.00039622084    4991.0218    5585.8678     10576.89    401089.35 
   17100         85.5   0.49821417 0.0013841491    5089.4397    5604.1621    10693.602    399552.15 
   17200           86   0.49732259 0.0012288415    5109.0955    5594.1332    10703.229     398025.7 
   17300         86.5   0.50055642 0.00041341102    4986.9174    5630.5089    10617.426     396509.8 
   17400           87   0.49687786 0.0018992673    5041.6941    5589.1306    10630.825    395002.97 
   17500         87.5   0.50393979 -0.00018615646      5026.92    5668.5667    10695.487    393505.65 
   17600           88    0.4966734 0.0024287812    5033.8508    5586.8307    10620.682    392016.84 
   17700         88.5   0.49803054 0.00069795497    5081.0987    5602.0965    10683.195    390538.78 
   17800           89   0.49966741 0.0015712515    5108.8128    5620.5089    10729.322    389069.14 
   17900         89.5   0.50421011 -0.0020920606     5144.897    5671.6074    10816.504    387609.39 
   18000           90   0.50608667 0.0019552979    4997.5878    5692.7159    10690.304    386158.02 
   18100         90.5   0.50453805 0.0016206679    5060.9335    5675.2962     10736.23    384715.18 
   18200           91   0.50538344 -0.00030699424    4984.7562    5684.8056    10669.562    383281.91 
   18300         91.5   0.50130294  0.002534918    5041.2169    5638.9062    10680.123    381857.39 
   18400           92   0.50082402 0.00048458913    5070.6907    5633.5189     10704.21    380441.93 
   18500         92.5   0.50676616 0.0013019179    5064.8091    5700.3591    10765.168    379034.95 
   18600           93   0.50318707 -0.0014927197    5070.4272    5660.0998    10730.527     377637.5 
   18700         93.5   0.50549878 0.0029869605    5033.3854     5686.103    10719.488    376247.44 
   18800           94   0.50692168 6.0093036e-05    4955.7059    5702.1085    10657.814    374867.13 
   18900         94.5   0.50474764 0.0017949624    5050.0162    5677.6539     10727.67    373495.22 
   19000           95   0.49972225 0.00017528453    4950.8033    5621.1258    10571.929    372131.46 
   19100         95.5   0.49513587  0.003267557    4986.8417    5569.5358    10556.377    370776.19 
   19200           96   0.49464543 -0.00052966104    5037.4963    5564.0191    10601.515    369429.95 
   19300         96.5   0.50003831 0.0013510618    5070.3128    5624.6809    10694.994    368090.75 
   19400           97    0.4962193 0.00075217999    5060.0212    5581.7228    10641.744    366759.43 
   19500         97.5   0.49515165 6.6867512e-05    4993.1721    5569.7134    10562.885    365436.07 
   19600           98   0.49955646 0.0028302496    4987.7511    5619.2608    10607.012    364120.19 
   19700         98.5   0.49230043 -0.00052043936    5062.0263    5537.6414    10599.668    362812.05 
   19800           99   0.50088483 0.0013181367    4981.9972     5634.203      10616.2    361511.24 
   19900         99.5   0.49921271 0.0023623174     5024.322    5615.3941    10639.716    360219.11 
   20000          100   0.49820331 -0.00074824138    4980.6821      5604.04    10584.722    358934.22 
   20100        100.5   0.50555587 0.0005944498      5080.63    5686.7453    10767.375       357657 
   20200          101   0.50340847 0.0045103058    5122.0957    5662.5902    10784.686    356388.06 
   20300        101.5   0.50333686 0.00021672661    5096.3819    5661.7847    10758.167    355127.84 
   20400          102   0.50390917  0.001804849    5043.4952    5668.2222    10711.717    353874.58 
   20500        102.5   0.49914786 0.0011973162    5020.4443    5614.6647    10635.109    352628.66 
   20600          103   0.50538023 0.0022268277    5017.8072    5684.7695    10702.577    351389.01 
   20700        103.5   0.51147003 0.0022154392    5050.8159    5753.2706    10804.087    350156.92 
   20800          104   0.49437453 -0.0010349566    5127.0882    5560.9719     10688.06     348931.8 
   20900        104.5   0.50971973 0.0023535777    5022.7139    5733.5824    10756.296    347713.05 
   21000          105   0.50063805 3.0864979e-05    5105.0677    5631.4271    10736.495    346501.62 
   21100        105.5   0.49738902 0.0027868832     5148.909    5594.8804    10743.789     345297.2 
   21200          106   0.50295646 7.4111295e-05    5046.6205    5657.5057    10704.126    344100.71 
   21300        106.5   0.50678938 0.0027544564    5116.3659    5700.6203    10816.986    342910.17 
   21400          107    0.4987123 0.00042253789    5150.5462    5609.7653    10760.311    341727.17 
   21500        107.5   0.50428432 0.0011985619    5047.3921    5672.4422    10719.834     340550.1 
   21600          108   0.49801105 -0.00067960336    5156.9384    5601.8773    10758.816    339380.07 
   21700        108.5   0.50130304 0.0014675287     5074.944    5638.9072    10713.851    338216.56 
   21800          109   0.49995184 0.00086974336    5016.9828    5623.7083    10640.691    337060.18 
   21900        109.5   0.50380109 0.00080155474     4942.433    5667.0065     10609.44    335910.89 
   22000          110   0.49385582 0.0015628161    5003.9597    5555.1372    10559.097    334767.66 
   22100        110.5   0.50046854 -0.00024302939    5017.4325    5629.5204    10646.953    333630.68 
   22200          111   0.50075714 0.0024785271     5094.651    5632.7667    10727.418    332499.15 
   22300        111.5   0.50563727 -0.0020291532     5090.694    5687.6608    10778.355    331374.27 
   22400          112   0.50046371 0.0019532373    5125.9456     5629.466    10755.412    330254.49 
   22500        112.5   0.50621764 0.00047502707    5088.5507    5694.1892     10782.74    329142.08 
   22600          113   0.50600164  0.001568983    5085.0163    5691.7595    10776.776    328035.66 
   22700        113.5    0.5058105 0.00087073487    5033.2561    5689.6094    10722.865    326935.98 
   22800          114   0.50263414 0.0015126536    5023.1455    5653.8801    10677.026    325842.53 
   22900        114.5   0.50542765 0.0022005262    5064.5358     5685.303    10749.839     324755.3 
   23000          115   0.50356125  0.004095177    5050.7527    5664.3087    10715.061    323673.86 
   23100        115.5   0.50408872 -0.0022431267    5090.7929     5670.242    10761.035    322599.26 
   23200          116   0.50133063 0.0024282287    5081.1451    5639.2176    10720.363    321528.93 
   23300        116.5   0.49744124 0.00026064301    5022.0681    5595.4678    10617.536    320465.36 
   23400          117   0.50044832 0.00069680092    5052.4516    5629.2929    10681.745    319406.96 
   23500        117.5   0.50316993 0.0024578502    5006.2529     5659.907     10666.16     318354.7 
   23600          118    0.4977252 -0.0021040972    5039.8401    5598.6619    10638.502    317308.34 
   23700        118.5   0.49288886 -0.00053198735    5085.1882    5544.2603    10629.449    316266.09 
   23800          119   0.49638441 0.0037949106    4967.5703      5583.58     10551.15    315229.94 
   23900        119.5   0.50177201 0.0011102281    4886.8347    5644.1825    10531.017    314200.05 
   24000          120   0.49218083 -0.00039761772    5031.0552     5536.296    10567.351     313175.3 
   24100        120.5    0.4996509 0.0027067281    4961.1775    5620.3231    10581.501    312155.74 
   24200          121   0.49450759 0.0011305564    4999.5642    5562.4687    10562.033    311141.93 
   24300        121.5   0.50053027 0.0017258667    4933.9074    5630.2147    10564.122    310133.68 
   24400          122   0.48880471 0.00048264576    4991.8918    5498.3198    10490.212    309131.69 
   24500        122.5   0.49527388 0.0043479253     5019.435    5571.0882    10590.523    308135.53 
   24600          123   0.50279331 0.0013409966    4990.0429    5655.6706    10645.713    307145.01 
   24700        123.5   0.50369173 -0.00043245115    5120.9349    5665.7764    10786.711    306159.19 
   24800          124   0.50335916 0.0042639366    5032.0368    5662.0355    10694.072       305178 
   24900        124.5   0.49962573 -0.0029937354    5071.3891      5620.04    10691.429    304202.75 
   25000          125   0.50084917 0.0034503422    5058.7056    5633.8018    10692.507    303230.84 
   25100        125.5    0.5000079 -0.00090861939    5032.8405    5624.3389    10657.179    302264.24 
   25200          126   0.49778217 0.0012031557    5037.4959    5599.3027    10636.799    301302.99 
   25300        126.5   0.50298352 0.0028776263    5045.2007    5657.8102    10703.011    300347.03 
   25400          127   0.50073888 -0.0017450473    5009.2638    5632.5613    10641.825    299395.84 
   25500        127.5   0.50174718 0.0026523476     4981.211    5643.9031    10625.114    298448.66 
   25600          128   0.49788296 0.00074916878    5006.8296    5600.4365    10607.266    297507.13 
   25700        128.5   0.49469033 0.0023430862    5083.2636    5564.5241    10647.788    296570.39 
   25800          129     0.505222 0.00053252258    5017.4658    5682.9896    10700.455    295639.69 
   25900        129.5   0.50995934 0.0015910298    5084.7214    5736.2776    10820.999    294713.19 
   26000          130   0.49245229 -0.0019138959    5113.7076    5539.3496    10653.057    293790.91 
   26100        130.5   0.49688239 0.0029182271    5029.8099    5589.1816    10618.991    292872.82 
   26200          131   0.49958848 -7.3315285e-05    5072.4373    5619.6211    10692.058     291960.1 
   26300        131.5   0.50232855 -0.00077040687    5030.4939    5650.4427    10680.937    291051.84 
   26400          132   0.49515533 0.00074051995    5076.6762    5569.7548    10646.431    290147.79 
   26500        132.5    0.4950845 0.0040482839    5038.3416     5568.958      10607.3    289248.73 
   26600          133   0.50260908 -0.00048993851    5030.0897    5653.5982    10683.688    288355.22 
   26700        133.5     0.499799 0.0027678791    5020.6939     5621.989    10642.683     287465.9 
   26800          134   0.50841639 0.0033779263    5072.1251    5718.9217    10791.047    286582.02 
   26900        134.5   0.50137717 -0.00086789373    5143.0456    5639.7411    10782.787    285702.65 
   27000          135   0.50732352 0.0013246677     5001.274    5706.6286    10707.903    284826.78 
   27100        135.5   0.50292487 0.0011579056     4983.207    5657.1505    10640.357    283955.53 
   27200          136   0.49802709  0.000880616    5045.7507    5602.0578    10647.808    283088.37 
   27300        136.5   0.49500909 0.0015730067    5023.3108    5568.1098    10591.421    282225.94 
   27400          137   0.50121562 0.0017367969    5043.2231    5637.9239    10681.147    281367.33 
   27500        137.5   0.50422892 -0.0017012202    4994.8367     5671.819    10666.656    280512.86 
   27600          138    0.4949562 0.0039515352    5019.7988    5567.5148    10587.314    279661.55 
   27700        138.5   0.49689594 -0.0015158393     4991.845     5589.334    10581.179    278815.56 
   27800          139   0.49240691 0.0037714033    5088.4076    5538.8392    10627.247    277973.52 
   27900        139.5   0.50219123 -0.00068905682    5007.6579     5648.898    10656.556    277136.14 
   28000          140   0.50030854 0.0007085426    5042.4839    5627.7206    10670.204    276302.29 
   28100        140.5   0.50258129 -0.00031768835    5035.2062    5653.2857    10688.492    275472.81 
   28200          141   0.50336411 0.0036100999    5036.1036    5662.0912    10698.195       274647 
   28300        141.5   0.50214567 0.0016698172    5060.2446    5648.3856     10708.63    273825.77 
   28400          142   0.50555682 -0.00019607834    4996.4596    5686.7559    10683.215    273008.82 
   28500        142.5    0.5042085 0.0029694578    5032.6151    5671.5893    10704.204    272195.73 
   28600          143   0.50082299 0.0013958712    4962.2046    5633.5074    10595.712    271386.95 
   28700        143.5   0.49943644 0.0020042453    5005.3066    5617.9108    10623.217    270581.87 
   28800          144   0.49421036 0.0022894464    5030.2993    5559.1253    10589.425    269781.24 
   28900        144.5   0.49808396 0.00062818821    4953.1778    5602.6974    10555.875    268984.73 
   29000          145   0.49444172 -0.0025169147    5092.5257    5561.7277    10654.253    268191.93 
   29100        145.5   0.49207433  0.004154805    5014.5537     5535.098    10549.652    267401.97 
   29200          146   0.49112318 0.0005143835    5008.3168    5524.3991    10532.716    266616.02 
   29300        146.5   0.49593103 0.00072234606    4970.0464    5578.4802    10548.527    265834.55 
   29400          147    0.4903482 0.0035158767     5030.381    5515.6818    10546.063    265056.37 
   29500        147.5   0.49078513 -0.0025836468    5042.3187    5520.5966    10562.915     264282.5 
   29600          148   0.48898743 0.0052004326    5056.4082    5500.3751    10556.783    263511.49 
   29700        148.5   0.49117406 -0.0031051127    5012.5995    5524.9714    10537.571    262744.99 
   29800          149    0.5050818 0.0038986763    4962.1629    5681.4126    10643.576    261981.15 
   29900        149.5   0.49503528 -0.0015124903    5097.9847    5568.4044    10666.389    261221.06 
   30000          150   0.50696279 0.0012758064    5053.3065    5702.5709    10755.877    260464.33 
   30100        150.5    0.4997926 -0.0011016545    5032.2488    5621.9171    10654.166    259710.95 
   30200          151   0.50512027 0.0013805976     5052.224    5681.8453    10734.069    258960.83 
   30300        151.5   0.50225407 0.0022054855    5009.5029    5649.6049    10659.108     258214.8 
   30400          152   0.49427644 -0.00074649172    4986.6713    5559.8685     10546.54     257472.7 
   30500        152.5   0.49763407 0.0027385594    5024.6851    5597.6369    10622.322    256733.59 
   30600          153   0.49543726 0.00073230173    5098.1946     5572.926    10671.121    255998.22 
   30700        153.5   0.50687117 -0.0001323387     5051.735    5701.5403    10753.275    255266.66 
   30800          154   0.50098122 0.0032423399    5054.3111    5635.2872    10689.598    254538.63 
   30900        154.5   0.49869479 5.0426856e-05    4997.3056    5609.5684    10606.874    253814.08 
   31000          155   0.50184407 0.00038901238    5032.9064    5644.9931      10677.9    253093.09 
   31100        155.5    0.5024882 0.0017805238    5031.8796    5652.2386    10684.118    252374.81 
   31200          156   0.49943443 -0.0019776326    5096.0872    5617.8882    10713.975    251659.86 
   31300        156.5   0.50851822 0.0039056935    5064.6343    5720.0672    10784.702    250948.21 
   31400          157   0.50529994 0.0016486801    5116.1744    5683.8664    10800.041    250240.54 
   31500        157.5   0.50367044 -0.0031945202    5044.0255    5665.5369    10709.562    249536.46 
   31600          158   0.49620688 0.0032061008    5047.0423    5581.5831    10628.625    248834.49 
   31700        158.5   0.50265246 -0.00061951328    4993.7927    5654.0862    10647.879    248136.57 
   31800          159   0.50134231 0.0059559546     4985.119    5639.3489    10624.468    247441.38 
   31900        159.5    0.4985891 -0.0030274195    5022.0501    5608.3795     10630.43    246750.25 
   32000          160   0.50493724 0.0036746905    5023.9473    5679.7866    10703.734    246061.46 
   32100        160.5   0.50547209 -0.00076939777    5074.0424    5685.8028    10759.845    245376.33 
   32200          161   0.51002381 0.0019850653    5035.9001    5737.0028    10772.903    244693.49 
   32300        161.5   0.49955907 -0.00095640814    5094.4673    5619.2902    10713.758    244014.03 
   32400          162   0.50183738 0.0014939191    5071.8582    5644.9177    10716.776    243337.45 
   32500        162.5   0.50207315 0.0048917124    5043.2313    5647.5699    10690.801    242663.91 
   32600          163   0.50067751 -0.0006988178     5021.771     5631.871    10653.642     241994.1 
   32700        163.5   0.48773265  0.002878273    5052.2724    5486.2608    10538.533    241326.51 
   32800          164   0.49988219 0.0021341076    5040.3848    5622.9248     10663.31    240662.35 
   32900        164.5   0.49703506 -0.00022048258    5109.0463    5590.8989    10699.945     240001.6 
   33000          165   0.49572817 0.0035330556    5150.5481    5576.1983    10726.746     239343.5 
   33100        165.5   0.49808859 0.00017398078    4998.4371    5602.7495    10601.187    238688.49 
   33200          166   0.49707163 -0.00031253891    5094.2038    5591.3102    10685.514    238036.06 
   33300        166.5   0.49677844 -0.0021297019    5089.1681    5588.0123     10677.18     237386.6 
   33400          167   0.49804039 0.0044746772    5039.5665    5602.2074    10641.774    236739.55 
   33500        167.5   0.49823772  -0.00144086    5019.4636     5604.427    10623.891     236095.9 
   33600          168   0.49970261 0.00099434975    4970.1114    5620.9048    10591.016    235454.64 
   33700        168.5   0.49811911  0.003801267    5002.3162    5603.0929    10605.409    234816.23 
   33800          169   0.49801572 -0.00079411251    4989.7022    5601.9298    10591.632    234181.38 
   33900        169.5   0.48948843 -0.00063416248    5122.0739    5506.0106    10628.085    233548.65 
   34000          170   0.49824003 0.0020991259    5021.4106     5604.453    10625.864    232918.59 
   34100        170.5   0.50071006 0.0012404771    5080.1417    5632.2371    10712.379    232291.41 
   34200          171   0.49573426 0.0030136069     5044.997    5576.2668    10621.264     231667.5 
   34300        171.5   0.49590339 -0.0011879882    5010.2159    5578.1693    10588.385       231047 
   34400          172   0.49592364  0.004009906    5018.3326    5578.3971     10596.73    230428.83 
   34500        172.5   0.49875401 0.0035751704    4962.0296    5610.2345    10572.264    229813.76 
   34600          173   0.49258185 0.00070608652    4947.3943    5540.8069    10488.201    229201.16 
   34700        173.5   0.49689205 0.00064065041     5029.212    5589.2902    10618.502    228591.14 
   34800          174   0.49763625 0.0055960211      5061.38    5597.6614    10659.041    227983.38 
   34900        174.5   0.49970108 -0.0034544956    5093.8419    5620.8875    10714.729    227378.89 
   35000          175   0.50611483 0.0069493675    5063.8271    5693.0326     10756.86    226776.07 
   35100        175.5    0.4978288 -0.00091451349    5074.3166    5599.8273    10674.144    226176.31 
   35200          176   0.50766233 0.0018157358    4995.8018    5710.4398    10706.242    225579.07 
   35300        176.5    0.4956333 0.0047414575    5078.0534    5575.1312    10653.185    224984.34 
   35400          177   0.49919032 -0.0024551144    4936.1953    5615.1423    10551.338    224392.29 
   35500        177.5   0.49557953 0.0036203697    4992.2887    5574.5264    10566.815    223802.01 
   35600          178   0.50358961 0.0017138569    4942.2229    5664.6277    10606.851    223215.03 
   35700        178.5   0.50459892  0.004211727    4932.4446     5675.981    10608.426    222630.63 
   35800          179   0.49813594 -0.00081451323     5004.441    5603.2821    10607.723    222048.95 
   35900        179.5   0.49992106 0.0040016033     5081.136     5623.362    10704.498    221469.59 
   36000          180   0.49578661 0.0028287373    5159.4358    5576.8557    10736.291    220892.97 
   36100        180.5   0.49936478 -0.00013358554    5078.3331    5617.1047    10695.438    220318.92 
   36200          181   0.50463758 0.0035900091    5024.6806    5676.4158    10701.096    219747.07 
   36300        181.5   0.50024008 0.0013647294    5033.2471    5626.9505    10660.198    219177.77 
   36400          182   0.50553883 0.0018831474    5065.3385    5686.5535    10751.892    218610.75 
   36500        182.5   0.50213813 0.0025572668    5039.3379    5648.3007    10687.639    218045.69 
   36600          183   0.49943503 -0.001891191    5091.2277    5617.8949    10709.123    217483.04 
   36700        183.5   0.49982994 0.0033694701    4982.6915    5622.3371    10605.029    216922.26 
   36800          184   0.50129587 -0.00048561034    5024.7691    5638.8266    10663.596    216364.12 
   36900        184.5   0.49332307 0.0031714253     5008.517    5549.1445    10557.662    215807.66 
   37000          185   0.49898378 -0.0040245106    5019.6716     5612.819    10632.491    215253.65 
   37100        185.5    0.5052826 0.0085544673    5017.6371    5683.6713    10701.308    214701.67 
   37200          186   0.50234654 -0.00026476264    5017.8302     5650.645    10668.475    214153.09 
   37300        186.5   0.50031604 0.0017682304    4914.5687     5627.805    10542.374    213607.03 
   37400          187   0.49711657 0.0014910486    4922.1678    5591.8157    10513.984    213062.91 
   37500        187.5   0.48850607 -0.00048382652    4960.1191    5494.9605     10455.08    212520.78 
   37600          188    0.4977846 -0.00096338741    4979.4204    5599.3301    10578.751    211980.73 
   37700        188.5    0.4984582  0.002037988     5056.704     5606.907    10663.611    211442.93 
   37800          189    0.5000799 0.0018503413    5074.5224    5625.1488    10699.671    210907.57 
   37900        189.5   0.50239581 -0.0018196799    4986.6661    5651.1993    10637.865    210374.09 
   38000          190   0.49654946 0.0031223161    5025.1238    5585.4366     10610.56    209842.68 
   38100        190.5   0.49708681 -0.0011721003    5017.0101     5591.481    10608.491    209314.17 
   38200          191   0.48945666 9.1875741e-05    5028.5166    5505.6532     10534.17    208787.49 
   38300        191.5   0.49249783  0.002870112    5055.3013    5539.8618    10595.163    208262.74 
   38400          192    0.4988992 0.0036521703    4998.9652    5611.8676    10610.833    207740.67 
   38500        192.5   0.50118215 -0.00098344713    4997.9434    5637.5474    10635.491    207220.56 
   38600          193   0.49527961 0.0033560979     5033.334    5571.1527    10604.487    206702.39 
   38700        193.5   0.50194062 0.0014484325    4961.6665     5646.079    10607.746     206186.5 
   38800          194   0.49879907 -0.0021329788    5059.4744    5610.7413    10670.216    205672.69 
   38900        194.5   0.50647408 0.0040737815    5007.9494    5697.0737    10705.023    205160.33 
   39000          195    0.5009209 0.0023708801    4987.0772    5634.6088    10621.686    204650.65 
   39100        195.5   0.49454983 0.0027575603    5093.6939    5562.9438    10656.638    204143.66 
   39200          196    0.4976639 0.00046850823    5016.5486    5597.9723    10614.521    203639.15 
   39300        196.5   0.50464596  0.001967945    5012.7313    5676.5101    10689.241    203136.12 
   39400          197   0.50204871 0.0028092185    5048.1786     5647.295    10695.474    202634.54 
   39500        197.5   0.50277041 0.00084509951    5007.8869    5655.4129      10663.3    202135.13 
   39600          198   0.50680018 0.0056450435    5001.7327    5700.7418    10702.475    201637.41 
   39700        198.5   0.50238864 -0.0027544227    5005.7883    5651.1187    10656.907    201142.16 
   39800          199    0.5091781 0.0042934055    4951.6045    5727.4898    10679.094     200648.4 
   39900        199.5   0.50197621 0.00074752468    4961.0762    5646.4794    10607.556     200157.2 
   40000          200   0.49854092 0.0050158539    5038.9326    5607.8376     10646.77    199667.93 
   40100        200.5   0.49414852 -0.00010637492    5090.0108    5558.4296     10648.44    199180.82 
   40200          201   0.49397982 0.0011226276    5083.0482     5556.532     10639.58     198695.8 
   40300        201.5   0.49334826 0.00058562835    5061.7666    5549.4279    10611.195    198212.62 
   40400          202   0.49951545  0.004260163    5017.6388    5618.7995    10636.438    197731.13 
   40500        202.5   0.49959795 -0.00063222395    4995.0621    5619.7276     10614.79    197252.03 
   40600          203    0.5020691 0.0067213254    5014.9922    5647.5243    10662.516    196774.29 
   40700        203.5   0.50800853 0.00057103696    5000.6641     5714.334    10714.998    196298.74 
   40800          204   0.49378472 0.0023313106    5023.3133    5554.3374    10577.651    195825.01 
   40900        204.5   0.48986191  0.003023957    5093.1031    5510.2117    10603.315    195353.01 
   41000          205   0.49976015 0.00013967351    5017.3291    5621.5521    10638.881    194882.79 
   41100        205.5   0.49961444  0.002525079    5011.9318     5619.913    10631.845    194414.19 
   41200          206   0.49760155 0.0022252185    5019.7578     5597.271    10617.029    193947.53 
   41300        206.5   0.49901287 0.0035303679    4999.5395    5613.1463    10612.686    193482.66 
   41400          207   0.49307126 0.00054602843    4997.7521    5546.3121    10544.064    193019.74 
   41500        207.5   0.50335338 0.0017492486    4996.5493    5661.9705     10658.52    192558.38 
   41600          208   0.50322008 0.0024952403    5031.4679     5660.471    10691.939    192098.87 
   41700        208.5   0.50065971 0.0022257362     5078.803    5631.6707    10710.474    191641.91 
   41800          209   0.50489605 0.0066565172    4984.7626    5679.3232    10664.086    191186.79 
   41900        209.5    0.5035037 9.2292964e-05    5050.6069    5663.6614    10714.268    190733.46 
   42000          210   0.49850754 0.0062824687    5034.9485     5607.462     10642.41    190281.33 
   42100        210.5    0.4948285 -0.0043464694    5010.4342    5566.0784    10576.513     189831.1 
   42200          211   0.49668497 0.0074904832    5044.8876    5586.9609    10631.848    189381.68 
   42300        211.5   0.50111653 -0.0014128194    5020.0048    5636.8093    10656.814    188934.56 
   42400          212   0.49493391 0.0037127067    5030.4027    5567.2641    10597.667     188489.1 
   42500        212.5   0.49898149  0.003696437    4963.6101    5612.7933    10576.403    188045.46 
   42600          213   0.49458757 -0.001325798    5034.6437    5563.3682    10598.012    187603.29 
   42700        213.5   0.50037552 0.0039940396     5032.609    5628.4741    10661.083    187162.67 
   42800          214    0.4961227 0.00049636308    5070.5736    5580.6362     10651.21    186723.48 
   42900        214.5   0.50306102 0.0018008618    5067.5623    5658.6819    10726.244    186286.51 
   43000          215   0.50706917 0.0045479468    5056.0756    5703.7676    10759.843    185851.41 
   43100        215.5    0.5069991 -0.0052391385    5113.4512    5702.9794    10816.431    185418.05 
   43200          216   0.49626327 0.0075416258    5064.3773    5582.2174    10646.595    184985.31 
   43300        216.5   0.49854545 -0.002371979    5008.8629    5607.8885    10616.751    184554.85 
   43400          217   0.50213232 0.0061024932    5030.0747    5648.2354     10678.31    184126.04 
   43500        217.5   0.50193177 0.0025907978    5080.6475    5645.9795    10726.627    183699.08 
   43600          218   0.50311421 0.00057181414    5129.5335    5659.2802    10788.814    183273.75 
   43700        218.5    0.5044527 0.0043932399    5049.5489    5674.3362    10723.885    182849.86 
   43800          219   0.50289069 -0.00069644612    5046.0088    5656.7659    10702.775    182427.74 
   43900        219.5   0.49239865 0.0033321208    5051.2769    5538.7462    10590.023    182007.03 
   44000          220    0.4965027 -0.0018581054    5002.5468    5584.9106    10587.457    181588.13 
   44100        220.5    0.4939172 -0.00020920441    4997.8032    5555.8276    10553.631    181170.13 
   44200          221   0.49431537 0.0059793559    4991.7264    5560.3064    10552.033    180753.12 
   44300        221.5   0.49548114 -0.0017172356    4937.7636    5573.4196    10511.183    180338.46 
   44400          222   0.49124825  0.010413325    5022.6777     5525.806    10548.484    179925.29 
   44500        222.5   0.50050597 -0.0011839504    4961.4184    5629.9414     10591.36    179514.78 
   44600          223   0.50159255 0.0061479795    5037.4567    5642.1638    10679.621    179105.27 
   44700        223.5   0.50036632 -0.0022726158    5096.1066    5628.3706    10724.477    178697.08 
   44800          224   0.49760256 0.0058530617    5192.3495    5597.2824    10789.632    178289.94 
   44900        224.5   0.50477705 -0.0018089449    5103.9846    5677.9846    10781.969    177884.46 
   45000          225   0.50312783 0.0028562101    5144.3338    5659.4333    10803.767    177480.26 
   45100        225.5   0.50023033 0.0018467111    5042.3477    5626.8408    10669.189    177077.56 
   45200          226   0.49634211 -0.00076077698    5125.9106    5583.1042    10709.015    176676.61 
   45300        226.5   0.49194344 0.0039400118    5015.3836    5533.6258    10549.009    176276.65 
   45400          227   0.49349878 0.00081490912    4955.4836     5551.121    10506.605    175878.55 
   45500        227.5   0.49449854 0.0030050306    4949.6106    5562.3668    10511.977     175481.9 
   45600          228   0.49355948 0.0012291018    5067.7189    5551.8038    10619.523    175086.77 
   45700        228.5   0.50014449 0.0064560628    5093.7157    5625.8753    10719.591    174693.11 
   45800          229    0.5007599 -0.00025078846    5110.3468    5632.7977    10743.145    174301.21 
   45900        229.5   0.49094202 0.0040886458    5051.9163    5522.3613    10574.278    173910.55 
   46000          230    0.4958108 -0.003372428    5110.4586    5577.1278    10687.586     173521.5 
   46100        230.5   0.49413968 0.0016874352    5059.5558    5558.3301    10617.886    173133.03 
   46200          231   0.49348003  0.001311994    5076.7247    5550.9101    10627.635    172746.11 
   46300        231.5   0.49626522 0.0024190649    5036.0521    5582.2393    10618.291    172360.54 
   46400          232   0.50232724 0.0019008611    5048.1347    5650.4279    10698.563    171976.47 
   46500        232.5   0.50662399 0.0020977274    5054.3871    5698.7599    10753.147    171594.04 
   46600          233   0.50029183 0.0036416346    5052.2165    5627.5326    10679.749    171213.28 
   46700        233.5   0.50206345  0.002588169    5014.0031    5647.4607    10661.464    170833.83 
   46800          234   0.50402397 0.0016795915    5078.1162    5669.5137     10747.63    170455.73 
   46900        234.5   0.49728668 0.0033359537    5052.9748    5593.7292    10646.704    170078.86 
   47000          235   0.49932511 -0.0010639249    4993.6409    5616.6586    10610.299    169703.51 
   47100        235.5   0.49488764 0.00060419793    5006.5454    5566.7436    10573.289     169329.3 
   47200          236   0.49312817 0.0017844815    4983.4383    5546.9522    10530.391    168956.21 
   47300        236.5   0.49648477 0.0023831582    4974.3282    5584.7089    10559.037    168584.43 
   47400          237   0.50356486 0.0023164691    4982.9029    5664.3493    10647.252    168214.33 
   47500        237.5   0.50125885 -6.2428845e-05    5001.1056    5638.4102    10639.516    167845.67 
   47600          238    0.4975267  0.003303532    5008.5705    5596.4291        10605    167477.79 
   47700        238.5   0.49683402 0.0039358893    5009.4395    5588.6375    10598.077     167111.7 
   47800          239   0.50495644 0.0080859559    4986.8142    5680.0026    10666.817    166747.13 
   47900        239.5   0.50091466 -0.0034175379    4925.1318    5634.5386     10559.67    166384.12 
   48000          240   0.49811083 0.0083817834    4994.0819    5602.9997    10597.082    166021.61 
   48100        240.5   0.50504023 -4.761916e-05    5023.8623    5680.9451    10704.807    165661.12 
   48200          241    0.5003111 0.0057285902    5020.7076    5627.7495    10648.457    165301.52 
   48300        241.5    0.5056321 0.0005256926    5008.2402    5687.6026    10695.843    164943.21 
   48400          242   0.49999697 0.0024953758    5036.4856    5624.2159    10660.702    164585.64 
   48500        242.5   0.49663626 0.0023953838    5074.9691     5586.413    10661.382    164229.99 
   48600          243   0.50318963 -0.0039955987    5023.0571    5660.1285    10683.186    163875.46 
   48700        243.5   0.48795775 0.0036530212    5130.3831    5488.7927    10619.176    163521.77 
   48800          244   0.50096739 0.0041550744    5004.8566    5635.1317    10639.988    163169.42 
   48900        244.5   0.49635941 0.0017917023    4985.5463    5583.2989    10568.845    162818.64 
   49000          245   0.50423735 0.0041464418    4999.8621    5671.9138    10671.776    162469.06 
   49100        245.5   0.50796667 0.0013826745    5035.0766    5713.8631     10748.94    162120.58 
   49200          246   0.50762586 0.0031574119    5161.4099    5710.0295    10871.439    161773.25 
   49300        246.5   0.51092149 0.0026450627    5039.7529    5747.1003    10786.853    161427.19 
   49400          247   0.49283048 0.0008128508    5083.1428    5543.6037    10626.746    161082.42 
   49500        247.5   0.49716721 0.00072694086     4993.777    5592.3854    10586.162     160738.6 
   49600          248   0.50119523 0.0013189532    4981.2762    5637.6945    10618.971    160395.66 
   49700        248.5   0.50200697 -0.0018050485    5040.0108    5646.8254    10686.836    160053.85 
   49800          249    0.4946171 0.0073705219    5047.7298    5563.7004     10611.43    159713.16 
   49900        249.5   0.49861828  0.002623806    5048.9285    5608.7077    10657.636     159374.3 
   50000          250    0.4995929 0.0013656405    5081.4843    5619.6707    10701.155    159036.69 
Loop time of 111.218 on 1 procs for 50000 steps with 7500 atoms

Performance: 194212.942 tau/day, 449.567 timesteps/s
87.0% CPU use with 1 MPI tasks x 1 OpenMP threads

MPI task timing breakdown:
Section |  min time  |  avg time  |  max time  |%varavg| %total
---------------------------------------------------------------
Pair    | 3.646      | 3.646      | 3.646      |   0.0 |  3.28
Bond    | 40.992     | 40.992     | 40.992     |   0.0 | 36.86
Neigh   | 16.491     | 16.491     | 16.491     |   0.0 | 14.83
Comm    | 1.3698     | 1.3698     | 1.3698     |   0.0 |  1.23
Output  | 12.111     | 12.111     | 12.111     |   0.0 | 10.89
Modify  | 35.585     | 35.585     | 35.585     |   0.0 | 32.00
Other   |            | 1.023      |            |       |  0.92

Nlocal:    7500 ave 7500 max 7500 min
Histogram: 1 0 0 0 0 0 0 0 0 0
Nghost:    1129 ave 1129 max 1129 min
Histogram: 1 0 0 0 0 0 0 0 0 0
Neighs:    455 ave 455 max 455 min
Histogram: 1 0 0 0 0 0 0 0 0 0

Total # of neighbors = 455
Ave neighs/atom = 0.0606667
Ave special neighs/atom = 5.2
Neighbor list builds = 4520
Dangerous builds = 1324

unfix 2
unfix 3
fix 4 all nve
fix 5 all langevin ${T} ${T} 1 123456
fix 5 all langevin 0.5 ${T} 1 123456
fix 5 all langevin 0.5 0.5 1 123456
fix recen1 all recenter INIT INIT INIT


# RUN
run ${run_steps}
run 2000000
Per MPI rank memory allocation (min/avg/max) = 21.62 | 21.62 | 21.62 Mbytes
Step Time Temp Press PotEng KinEng TotEng Volume 
   50000          250    0.4995929 0.0013656405    5081.4843    5619.6707    10701.155    159036.69 
   50100        250.5   0.49546022 0.0034342515    5051.6531    5573.1843    10624.837    159036.69 
   50200          251   0.49749919 0.0023146385    5059.7506    5596.1196     10655.87    159036.69 
   50300        251.5   0.50755628 0.00063699539    5031.6915    5709.2468    10740.938    159036.69 
   50400          252   0.50696072 0.00072389023    5153.8365    5702.5476    10856.384    159036.69 
   50500        252.5   0.49896801 0.0027090397    5108.0034    5612.6417    10720.645    159036.69 
   50600          253   0.50142001 0.0024651042     5034.553    5640.2229    10674.776    159036.69 
   50700        253.5   0.49958325 0.0042894333    5101.5016    5619.5622    10721.064    159036.69 
   50800          254   0.50399288 0.0011441967    4996.1399    5669.1639    10665.304    159036.69 
   50900        254.5   0.49756215 0.0050521431    5041.0067    5596.8279    10637.835    159036.69 
   51000          255   0.49704321 -0.0049026555    5018.3964    5590.9906    10609.387    159036.69 
   51100        255.5   0.49854653 0.0051751167    4985.8751    5607.9007    10593.776    159036.69 
   51200          256   0.49539768 0.0018215335    5020.0702    5572.4809    10592.551    159036.69 
   51300        256.5   0.50128358 0.0014395465    4937.8038    5638.6884    10576.492    159036.69 
   51400          257   0.49441579 0.0034743193    5073.6576     5561.436    10635.094    159036.69 
   51500        257.5   0.49840516 -0.0016844939    5018.1767    5606.3104    10624.487    159036.69 
   51600          258   0.49550502 0.0030950099    5037.0854    5573.6883    10610.774    159036.69 
   51700        258.5   0.50800765 0.0015899092    4988.1727     5714.324    10702.497    159036.69 
   51800          259   0.50038711 0.00059134621    5043.5643    5628.6044    10672.169    159036.69 
   51900        259.5   0.49570953 0.0061512547    5016.9643    5575.9887    10592.953    159036.69 
   52000          260   0.50160492 -0.0016685687     5054.199     5642.303    10696.502    159036.69 
   52100        260.5   0.50403148 0.0025877657    4965.5742    5669.5981    10635.172    159036.69 
   52200          261   0.49735725 0.0018007252    4956.1594     5594.523    10550.682    159036.69 
   52300        261.5    0.4999094 0.0039694024    4950.5673    5623.2308    10573.798    159036.69 
   52400          262   0.49731021 0.0012516923    5044.3412    5593.9939    10638.335    159036.69 
   52500        262.5   0.49557626 0.0024850806    5038.3491    5574.4895    10612.839    159036.69 
   52600          263    0.5025837 0.0069941865     4971.494    5653.3128    10624.807    159036.69 
   52700        263.5   0.49213601 0.0013869153    4958.6442    5535.7919    10494.436    159036.69 
   52800          264   0.49477574 0.0027669504    4975.8398    5565.4849    10541.325    159036.69 
   52900        264.5   0.49735384 0.0041762313    4969.2653    5594.4847     10563.75    159036.69 
   53000          265   0.50160943 0.00072496881    5022.1465    5642.3537      10664.5    159036.69 
   53100        265.5     0.496478 0.0011058888    5061.0525    5584.6327    10645.685    159036.69 
   53200          266   0.49819108 -0.0010287418    5028.6635    5603.9023    10632.566    159036.69 
   53300        266.5   0.49784977  0.002314001    5010.5942    5600.0631    10610.657    159036.69 
   53400          267   0.49647981 0.00017974733    4993.4714    5584.6532    10578.125    159036.69 
   53500        267.5   0.49595687 0.0047198007    4987.8226    5578.7708    10566.593    159036.69 
   53600          268   0.49556996 3.8909309e-05    4938.6953    5574.4187    10513.114    159036.69 
   53700        268.5   0.49902334 0.0011762823    4981.0563     5613.264     10594.32    159036.69 
   53800          269   0.49697665 0.0090288513    4999.5909    5590.2419    10589.833    159036.69 
   53900        269.5   0.50058818 -0.00079892088    4968.1788    5630.8661    10599.045    159036.69 
   54000          270   0.50182927 0.0041295517    5024.6385    5644.8265    10669.465    159036.69 
   54100        270.5   0.50690185  0.001432002    4926.1627    5701.8854    10628.048    159036.69 
   54200          271   0.50803555 0.0054077075      4955.53    5714.6379    10670.168    159036.69 
   54300        271.5   0.49193164 0.0030468657    5007.8632    5533.4931    10541.356    159036.69 
   54400          272   0.50024039 -0.0011632363    4947.4933     5626.954    10574.447    159036.69 
   54500        272.5   0.49555445 0.0023759769    5017.5555    5574.2442      10591.8    159036.69 
   54600          273   0.50769501 0.0032825764    5007.8497    5710.8073    10718.657    159036.69 
   54700        273.5   0.50093061 -0.00074844178    5078.8555     5634.718    10713.574    159036.69 
   54800          274   0.49971921 0.0088536704    5038.1422    5621.0916    10659.234    159036.69 
   54900        274.5   0.48996199 -0.0056401465    5114.6825    5511.3374     10626.02    159036.69 
   55000          275   0.50455086  0.012566758    5020.7662    5675.4404    10696.207    159036.69 
   55100        275.5   0.49648209 -0.0057795223    5087.2246    5584.6788    10671.903    159036.69 
   55200          276   0.50112344 0.0080505509    5021.9633     5636.887     10658.85    159036.69 
   55300        276.5   0.51306283 0.0010286874    5012.6008    5771.1872    10783.788    159036.69 
   55400          277    0.5059442 -0.0011298096    5100.3323    5691.1133    10791.446    159036.69 
   55500        277.5    0.5023508 0.0061959203    5033.1189     5650.693    10683.812    159036.69 
   55600          278   0.50183421 0.0017305584    4985.0699    5644.8821    10629.952    159036.69 
   55700        278.5   0.50054803 0.0025458777    5098.7944    5630.4145    10729.209    159036.69 
   55800          279   0.49868284 0.0057761302    5043.0571    5609.4339    10652.491    159036.69 
   55900        279.5   0.50405718 -0.0011146734    4998.5465    5669.8872    10668.434    159036.69 
   56000          280   0.49958139 2.487926e-05    5126.3504    5619.5412    10745.892    159036.69 
   56100        280.5   0.50049269 0.0069210861    5089.1076    5629.7921      10718.9    159036.69 
   56200          281   0.49717722 -0.0029771724    4964.3641     5592.498    10556.862    159036.69 
   56300        281.5   0.49577602 0.0070412202    5053.1086    5576.7366    10629.845    159036.69 
   56400          282    0.4972987 -0.00027383049    5092.6427    5593.8644    10686.507    159036.69 
   56500        282.5   0.49337584 0.0026436652    5027.7268    5549.7381    10577.465    159036.69 
   56600          283   0.49772589  0.001843461    5043.1419    5598.6697    10641.812    159036.69 
   56700        283.5   0.50557817  0.004429534    4962.7556    5686.9961    10649.752    159036.69 
   56800          284   0.50172391 0.0034539929    4960.6358    5643.6414    10604.277    159036.69 
   56900        284.5   0.49455109 -0.0011548643    5056.6094    5562.9579    10619.567    159036.69 
   57000          285   0.49654536 0.0085723551    5027.0937    5585.3905    10612.484    159036.69 
   57100        285.5   0.49762544 1.5505754e-05    5039.9655    5597.5398    10637.505    159036.69 
   57200          286   0.49412374 0.0024920967    5029.5574    5558.1509    10587.708    159036.69 
   57300        286.5   0.50316559 0.0012487654    4997.4561    5659.8582    10657.314    159036.69 
   57400          287   0.50414833  0.005829465    5058.5119    5670.9125    10729.424    159036.69 
   57500        287.5   0.50288735 -0.0015405975    4937.3181    5656.7284    10594.046    159036.69 
   57600          288   0.50001378 0.0057458864    5062.3289     5624.405    10686.734    159036.69 
   57700        288.5   0.49852352 -0.00012702536     5099.502    5607.6418    10707.144    159036.69 
   57800          289   0.49698617 0.0057438602    5108.6514     5590.349        10699    159036.69 
   57900        289.5   0.50001054 -0.001419897    5107.3477    5624.3685    10731.716    159036.69 
   58000          290   0.50303921 0.0023314605    5028.5171    5658.4366    10686.954    159036.69 
   58100        290.5   0.49393683 -0.0035853115    5093.4185    5556.0484    10649.467    159036.69 
   58200          291   0.50255612 0.0037064359    5018.3697    5653.0025    10671.372    159036.69 
   58300        291.5   0.49572759 -0.0047346131    5009.1511    5576.1918    10585.343    159036.69 
   58400          292   0.49111265  0.009327097    5002.4704    5524.2806    10526.751    159036.69 
   58500        292.5   0.50093679 0.0014433203    4908.5371    5634.7874    10543.325    159036.69 
   58600          293   0.49437061 -0.0015857605    4978.4671    5560.9278    10539.395    159036.69 
   58700        293.5   0.50215885 0.0066109438      4945.18    5648.5338    10593.714    159036.69 
   58800          294   0.50310113 -0.0032533244    4929.2892    5659.1331    10588.422    159036.69 
   58900        294.5   0.49223731 0.0053889953    5053.2755    5536.9313    10590.207    159036.69 
   59000          295    0.4956717 -0.0018973068    4969.0365    5575.5631      10544.6    159036.69 
   59100        295.5   0.48317963 0.0014633919    5042.0858    5435.0461    10477.132    159036.69 
   59200          296   0.49617077 0.0068490637    4959.3619    5581.1769    10540.539    159036.69 
   59300        296.5   0.49978437 -0.0041623632    5049.5144    5621.8245    10671.339    159036.69 
   59400          297   0.50022387 0.0011402642    5102.2338    5626.7682    10729.002    159036.69 
   59500        297.5   0.50855734 0.0010467213    5121.3875    5720.5072    10841.895    159036.69 
   59600          298   0.50780062 0.0022202419    5005.5161    5711.9953    10717.511    159036.69 
   59700        298.5   0.50133169 0.0016022749    5006.2197    5639.2295    10645.449    159036.69 
   59800          299   0.49959991 0.0016893716    5011.5303    5619.7496     10631.28    159036.69 
   59900        299.5   0.50855392 0.0023377641    4951.5193    5720.4688    10671.988    159036.69 
   60000          300   0.49987898 0.0050244958    4993.8919    5622.8887    10616.781    159036.69 
   60100        300.5    0.5092727 2.2526962e-05    5003.4493     5728.554    10732.003    159036.69 
   60200          301   0.51077607 0.0060283434    5008.8912    5745.4647    10754.356    159036.69 
   60300        301.5   0.51181018 -0.0026804822     5071.511    5757.0968    10828.608    159036.69 
   60400          302   0.50582662 0.0045027509    5042.2362    5689.7908    10732.027    159036.69 
   60500        302.5   0.50284692 0.0023820717    5041.0887    5656.2735    10697.362    159036.69 
   60600          303    0.5073421 0.0023943977    4970.1316    5706.8376    10676.969    159036.69 
   60700        303.5   0.50002538 0.0040934117    5037.7565    5624.5355    10662.292    159036.69 
   60800          304    0.5012619 0.0029192007    4945.7897    5638.4445    10584.234    159036.69 
   60900        304.5   0.49818606 0.0038251694    5003.9177    5603.8459    10607.764    159036.69 
   61000          305   0.49621017 0.0050462338     4982.179    5581.6201    10563.799    159036.69 
   61100        305.5   0.49513125 0.0028431645    5030.5018    5569.4839    10599.986    159036.69 
   61200          306   0.50761437 0.0018604011    4976.4837    5709.9002    10686.384    159036.69 
   61300        306.5   0.50977149  0.003048293    4978.3305    5734.1646    10712.495    159036.69 
   61400          307   0.50319517 0.0072967804    5049.6433    5660.1909    10709.834    159036.69 
   61500        307.5   0.50815517 -0.0030138297    5074.2414    5715.9834    10790.225    159036.69 
   61600          308   0.50506021 0.00072911175    5097.2421    5681.1698    10778.412    159036.69 
   61700        308.5   0.49595102 4.9448434e-05    5042.4084    5578.7051    10621.113    159036.69 
   61800          309   0.49324348 0.0001679762    5026.6542    5548.2492    10574.903    159036.69 
   61900        309.5   0.50632976 0.0027337022    5024.8902    5695.4503    10720.341    159036.69 
   62000          310   0.49689975  0.001557671     4957.839    5589.3768    10547.216    159036.69 
   62100        310.5   0.49676875 0.0022840686    5002.8444    5587.9033    10590.748    159036.69 
   62200          311   0.49655715 -0.00079664054    4942.6736    5585.5231    10528.197    159036.69 
   62300        311.5   0.50199808 0.0065535151    5009.9278    5646.7254    10656.653    159036.69 
   62400          312   0.50460321 -0.0017510687    5089.8015    5676.0293    10765.831    159036.69 
   62500        312.5   0.50115526 0.0049755865    5100.5836    5637.2449    10737.829    159036.69 
   62600          313     0.499343 0.00091075826    5197.7716    5616.8597    10814.631    159036.69 
   62700        313.5   0.50643006  0.011700088    5078.3986    5696.5786    10774.977    159036.69 
   62800          314   0.50295233 -0.0020808423    5064.8913    5657.4593    10722.351    159036.69 
   62900        314.5   0.50522733 0.0023345207    5053.2629    5683.0496    10736.313    159036.69 
   63000          315    0.4986858 -0.0017174266    5091.0949    5609.4672    10700.562    159036.69 
   63100        315.5   0.49985592 0.0050166594    5112.7279    5622.6294    10735.357    159036.69 
   63200          316   0.49694016 -0.0011657943    5048.0597    5589.8314    10637.891    159036.69 
   63300        316.5   0.49764899 0.0021840563    5029.2998    5597.8046    10627.104    159036.69 
   63400          317   0.49800155 0.00046536374    5114.6775    5601.7704    10716.448    159036.69 
   63500        317.5   0.50036352 0.0031665803    5046.5322    5628.3391    10674.871    159036.69 
   63600          318   0.50381925 -0.0033971971    4942.3865    5667.2109    10609.597    159036.69 
   63700        318.5   0.49768172  0.004127351    5002.2427    5598.1729    10600.416    159036.69 
   63800          319   0.50436353 0.0020048951    4990.4223    5673.3331    10663.755    159036.69 
   63900        319.5   0.49943868 -5.8541077e-05    5038.4715     5617.936    10656.407    159036.69 
   64000          320    0.5038992 0.0019732399    5097.2302    5668.1101     10765.34    159036.69 
   64100        320.5   0.50679396 0.0051056243    4999.9041    5700.6718    10700.576    159036.69 
   64200          321   0.49629229 -0.0014045384     5062.234    5582.5438    10644.778    159036.69 
   64300        321.5   0.50482652 0.0025505405    5052.6575    5678.5411    10731.199    159036.69 
   64400          322    0.5032506 0.00044637183    5085.2503    5660.8144    10746.065    159036.69 
   64500        322.5   0.50020214 0.0027100032    5065.0184    5626.5238    10691.542    159036.69 
   64600          323   0.49412476 -0.00021834445    5063.2487    5558.1624    10621.411    159036.69 
   64700        323.5   0.49793972 0.0031636842    5126.8085    5601.0749    10727.883    159036.69 
   64800          324   0.50090909 8.731497e-05    5103.2419    5634.4758    10737.718    159036.69 
   64900        324.5   0.49543093 0.0010422398    5041.8066    5572.8549    10614.661    159036.69 
   65000          325   0.49543324 -0.0058073736    5046.0806    5572.8808    10618.961    159036.69 
   65100        325.5   0.50196268  0.011658584    4979.4179    5646.3273    10625.745    159036.69 
   65200          326   0.49628724 0.00020704828    5052.9345     5582.487    10635.422    159036.69 
   65300        326.5   0.49961246 0.0088702987    4991.0682    5619.8908    10610.959    159036.69 
   65400          327   0.49379018 0.0002844797    4930.7503    5554.3988    10485.149    159036.69 
   65500        327.5   0.50224852 0.0010360796    4951.6088    5649.5425    10601.151    159036.69 
   65600          328    0.4963734 0.0048381068    4929.4669    5583.4562    10512.923    159036.69 
   65700        328.5   0.49064014 0.0029786567     4958.263    5518.9656    10477.229    159036.69 
   65800          329   0.49307494 0.00011906999    5040.5819    5546.3535    10586.935    159036.69 
   65900        329.5   0.49822533 0.0025377845    4983.4386    5604.2876    10587.726    159036.69 
   66000          330   0.50009357 0.0043073639    5023.4484    5625.3026    10648.751    159036.69 
   66100        330.5   0.49294064 -0.0030468147      5026.22    5544.8428    10571.063    159036.69 
   66200          331   0.49299127 0.0043284571    5133.3763    5545.4123    10678.789    159036.69 
   66300        331.5   0.50123092 -0.0013786839    5064.2825     5638.096    10702.378    159036.69 
   66400          332   0.50469626 0.0073719638    5049.8614    5677.0759    10726.937    159036.69 
   66500        332.5   0.50162039 -0.002044611    5075.0891     5642.477    10717.566    159036.69 
   66600          333   0.50288991 0.0076083398    5080.7435    5656.7572    10737.501    159036.69 
   66700        333.5   0.50182336 -0.00018326333    5039.4971      5644.76    10684.257    159036.69 
   66800          334   0.50123118 0.0032634273    5127.8745     5638.099    10765.973    159036.69 
   66900        334.5   0.50477642 -0.00049187222    5120.9469    5677.9775    10798.924    159036.69 
   67000          335   0.50236817  0.004210439     5158.322    5650.8884     10809.21    159036.69 
   67100        335.5   0.50430328 0.0020945833    5163.7427    5672.6555    10836.398    159036.69 
   67200          336   0.50495234 -0.0026184592    5039.2526    5679.9564    10719.209    159036.69 
   67300        336.5   0.50576364 0.0048333902    5089.6225    5689.0824    10778.705    159036.69 
   67400          337   0.49902815 -0.0027770505     5077.944    5613.3181    10691.262    159036.69 
   67500        337.5   0.50151187 0.0035295826    5128.6824    5641.2562    10769.939    159036.69 
   67600          338   0.49971292 0.0022676147    5058.2652    5621.0208    10679.286    159036.69 
   67700        338.5     0.491541  0.002642099    5047.0496     5529.099    10576.149    159036.69 
   67800          339   0.50277327 0.0031687629    5013.6919    5655.4451    10669.137    159036.69 
   67900        339.5   0.50204154 0.0014303227    5104.6159    5647.2143     10751.83    159036.69 
   68000          340   0.50648866 0.0048328485    5097.7732    5697.2377    10795.011    159036.69 
   68100        340.5   0.51016913 -0.00037816437    5065.8876    5738.6374    10804.525    159036.69 
   68200          341   0.50847309 0.0016362948    5097.4483    5719.5596    10817.008    159036.69 
   68300        341.5    0.5034554 0.0005860763     5100.357    5663.1181    10763.475    159036.69 
   68400          342   0.50547087 -0.00030091755    5149.9578    5685.7891    10835.747    159036.69 
   68500        342.5   0.50627119  0.008216065    5145.9639    5694.7915    10840.755    159036.69 
   68600          343   0.50170749 -0.0036807686    5089.2794    5643.4567    10732.736    159036.69 
   68700        343.5   0.50848947 0.0047229647    4988.6567    5719.7438    10708.401    159036.69 
   68800          344   0.49992685 0.0044031575    4995.8259    5623.4272    10619.253    159036.69 
   68900        344.5   0.49896425 -0.0021772254    5066.5466    5612.5993    10679.146    159036.69 
   69000          345   0.50866486 0.0045260337    5088.9754    5721.7166    10810.692    159036.69 
   69100        345.5   0.50780219 0.0021769106    5061.4329    5712.0129    10773.446    159036.69 
   69200          346   0.50601675 0.0010593923    5036.5373    5691.9294    10728.467    159036.69 
   69300        346.5   0.49720348  0.001009086     5057.632    5592.7933    10650.425    159036.69 
   69400          347    0.4956245 0.0011776575    5076.4084    5575.0322    10651.441    159036.69 
   69500        347.5   0.49492825 0.0027156433     5097.174    5567.2004    10664.374    159036.69 
   69600          348   0.50329433 0.0034092371    5075.6903    5661.3063    10736.997    159036.69 
   69700        348.5   0.50327156  0.001537005    5061.2849    5661.0501    10722.335    159036.69 
   69800          349   0.50235816 -0.0016216414    5032.8507    5650.7757    10683.626    159036.69 
   69900        349.5   0.50225414 0.0074087588    5036.2828    5649.6057    10685.888    159036.69 
   70000          350   0.51185666 -0.0017864578    5047.7908    5757.6197     10805.41    159036.69 
   70100        350.5   0.50433291 0.0030695042    5071.2745    5672.9888    10744.263    159036.69 
   70200          351   0.51009876 0.00055893448    5099.3942    5737.8459     10837.24    159036.69 
   70300        351.5   0.49986292 0.0023298971    5068.1652     5622.708    10690.873    159036.69 
   70400          352   0.49206698 0.0026804876    5083.3655    5535.0155    10618.381    159036.69 
   70500        352.5   0.49413783 0.00014944284    5036.5025    5558.3094    10594.812    159036.69 
   70600          353   0.49751551  0.003298683    5057.4153    5596.3032    10653.719    159036.69 
   70700        353.5   0.49959797 -0.0022953617    5017.2543    5619.7278    10636.982    159036.69 
   70800          354   0.49421308 0.0072891749    5036.8169    5559.1559    10595.973    159036.69 
   70900        354.5   0.50238474 -0.00065369017    4942.1993    5651.0748    10593.274    159036.69 
   71000          355    0.5007727 0.0066855453    4960.6723    5632.9418    10593.614    159036.69 
   71100        355.5   0.50437457 0.0035980338    4978.8733    5673.4574    10652.331    159036.69 
   71200          356   0.50604125 0.00047448757     5077.788     5692.205    10769.993    159036.69 
   71300        356.5     0.498702 0.0031786693    5097.9455    5609.6495    10707.595    159036.69 
   71400          357    0.5043696 0.0021495206    4984.5714    5673.4014    10657.973    159036.69 
   71500        357.5   0.49626463 0.0072238815    5057.6975    5582.2327     10639.93    159036.69 
   71600          358   0.50145033 -0.0001745678    5020.6018     5640.564    10661.166    159036.69 
   71700        358.5   0.49771105 0.0032162059    5051.2588    5598.5027    10649.762    159036.69 
   71800          359   0.49622539 0.00091160158    5005.6955    5581.7913    10587.487    159036.69 
   71900        359.5   0.48979473 0.0055187385    4993.6666     5509.456    10503.123    159036.69 
   72000          360   0.50074423 0.0010579339    4998.0641    5632.6215    10630.686    159036.69 
   72100        360.5   0.49965211 0.0019078842    4993.2555    5620.3367    10613.592    159036.69 
   72200          361   0.49926266 -0.0019825327    5005.0621     5615.956    10621.018    159036.69 
   72300        361.5   0.49397288  0.006494703    4962.1293     5556.454    10518.583    159036.69 
   72400          362   0.49769325 0.0030630288     4979.416    5598.3025    10577.718    159036.69 
   72500        362.5    0.4932018 -0.0022259867    5085.0927    5547.7805    10632.873    159036.69 
   72600          363   0.50230513 0.0090756664    5018.9635    5650.1793    10669.143    159036.69 
   72700        363.5   0.49414673 -0.0031073521    5083.1988    5558.4095    10641.608    159036.69 
   72800          364   0.50252626  0.004578764    5107.6247    5652.6666    10760.291    159036.69 
   72900        364.5   0.50073327 -0.002327081    5030.8196    5632.4982    10663.318    159036.69 
   73000          365    0.5068611 0.0019839573    5060.3919    5701.4271    10761.819    159036.69 
   73100        365.5   0.50660214 0.0005408224    4975.3579    5698.5141    10673.872    159036.69 
   73200          366   0.50728454 0.0025624733    5067.7089    5706.1902    10773.899    159036.69 
   73300        366.5   0.50444096 0.0071509752     4992.516    5674.2042     10666.72    159036.69 
   73400          367   0.50529538 -0.0033515662    5016.7765    5683.8151    10700.592    159036.69 
   73500        367.5   0.49957173  0.008576827    5041.4391    5619.4326    10660.872    159036.69 
   73600          368   0.49176183 -0.00057446046    5078.6663    5531.5829    10610.249    159036.69 
   73700        368.5   0.49357223 0.0056092732    4960.5108    5551.9473    10512.458    159036.69 
   73800          369   0.49089578 -0.0015074815    4978.1085    5521.8412     10499.95    159036.69 
   73900        369.5   0.50073902  0.005392865    4961.4667    5632.5628    10594.029    159036.69 
   74000          370   0.50799785 -0.0024334719    5034.4005    5714.2138    10748.614    159036.69 
   74100        370.5   0.50852323 0.0092036416    5075.0491    5720.1236    10795.173    159036.69 
[...]
  684100       3420.5   0.50131163 -0.00027120411    5039.5269    5639.0039    10678.531    159036.69 
  684200         3421   0.50241321 0.0055486151    5013.2848     5651.395     10664.68    159036.69 
  684300       3421.5    0.4946364 -0.0046000217    5060.7082    5563.9175    10624.626    159036.69 
  684400         3422   0.49239103 0.0087331748    4979.6851    5538.6606    10518.346    159036.69 
  684500       3422.5   0.49684129 -0.00029413493    4988.1957    5588.7192    10576.915    159036.69 
  684600         3423   0.49550101 -0.0039185638     4992.923    5573.6431    10566.566    159036.69 
  684700       3423.5    0.5027733 0.0086505008    4989.8063    5655.4455    10645.252    159036.69 
  684800         3424   0.49961188 -0.0066454441    4996.4936    5619.8843    10616.378    159036.69 
  684900       3424.5   0.49793046 0.0075971455    5047.9626    5600.9708    10648.933    159036.69 
  685000         3425   0.50634704 -0.0011232842     4954.797    5695.6447    10650.442    159036.69 
  685100       3425.5   0.49992398  0.004156535    5057.2349    5623.3948     10680.63    159036.69 
  685200         3426   0.49600958 0.0026742068    5026.2689    5579.3637    10605.633    159036.69 
  685300       3426.5   0.49630412 -0.0023832991    5063.0477    5582.6769    10645.725    159036.69 
  685400         3427   0.50588339 0.0065113921    5093.2768    5690.4293    10783.706    159036.69 
  685500       3427.5   0.50124226 -0.0050061436    5089.9562    5638.2236     10728.18    159036.69 
  685600         3428   0.49610457 0.0060905295    5013.3425    5580.4322    10593.775    159036.69 
  685700       3428.5   0.49798958 -0.00080663866    5153.6826    5601.6358    10755.318    159036.69 
  685800         3429   0.50673688 -0.00010645369    5091.4023    5700.0298    10791.432    159036.69 
  685900       3429.5   0.50581972  0.001984725    5071.7276    5689.7131    10761.441    159036.69 
  686000         3430   0.50729754 0.0047083618    4974.8364    5706.3364    10681.173    159036.69 
  686100       3430.5    0.5028407 -0.0042574608    5013.4374    5656.2036    10669.641    159036.69 
  686200         3431   0.50043452  0.006273386    4991.3984    5629.1377    10620.536    159036.69 
  686300       3431.5     0.495751 -0.0020767058    4951.3628    5576.4552    10527.818    159036.69 
  686400         3432   0.49513216  0.005742835    4996.9876    5569.4941    10566.482    159036.69 
  686500       3432.5   0.50376676 -0.0024369041    5013.1832    5666.6204    10679.804    159036.69 
  686600         3433   0.49470173 0.0011536743    5021.8706    5564.6524    10586.523    159036.69 
  686700       3433.5   0.49498661 0.0033731005    4995.4225    5567.8569    10563.279    159036.69 
  686800         3434   0.49956017 -0.0016677479    4976.4471    5619.3026     10595.75    159036.69 
  686900       3434.5   0.49620351 -0.0022984257    5046.8474    5581.5452    10628.393    159036.69 
  687000         3435   0.49414324 0.0022451671       5090.3    5558.3702     10648.67    159036.69 
  687100       3435.5   0.49836685 -0.0003994636    5015.1748    5605.8795    10621.054    159036.69 
  687200         3436   0.49272588 0.0082187877    5092.8874    5542.4271    10635.314    159036.69 
  687300       3436.5   0.49648019 -0.0020303794     5102.649    5584.6575    10687.306    159036.69 
  687400         3437   0.50038975 0.0034791129    5071.1737    5628.6341    10699.808    159036.69 
  687500       3437.5   0.50573148 -0.0011310815    5058.6412    5688.7206    10747.362    159036.69 
  687600         3438   0.49652421 0.0048243406    5003.2365    5585.1525    10588.389    159036.69 
  687700       3438.5    0.4913539 -0.0023981172    4987.1387    5526.9943    10514.133    159036.69 
  687800         3439   0.49823968 0.0037621253     4932.572    5604.4491    10537.021    159036.69 
  687900       3439.5   0.49483386 7.8512001e-05    4987.6974    5566.1387    10553.836    159036.69 
  688000         3440   0.50273874 0.0076427577     4979.071    5655.0568    10634.128    159036.69 
  688100       3440.5   0.49579743 -0.0025880043      5020.99    5576.9774    10597.967    159036.69 
  688200         3441   0.50024114 0.0070501588    5077.4178    5626.9625     10704.38    159036.69 
  688300       3441.5   0.50303115 0.0041941318    5140.1536    5658.3459    10798.499    159036.69 
  688400         3442   0.50265375 0.00056019866    5061.5208    5654.1007    10715.621    159036.69 
  688500       3442.5   0.49802609 0.0023909161    5078.3061    5602.0465    10680.353    159036.69 
  688600         3443    0.4997574   0.00228706    5053.0748    5621.5211    10674.596    159036.69 
  688700       3443.5    0.5007662 -0.0039349183    5084.5007    5632.8686    10717.369    159036.69 
  688800         3444    0.5091553 0.0035756774    5078.6823    5727.2334    10805.916    159036.69 
  688900       3444.5   0.50322663 0.0017723914    5007.8255    5660.5447     10668.37    159036.69 
  689000         3445   0.49868969 0.00065884096    4975.4133     5609.511    10584.924    159036.69 
  689100       3445.5   0.50094402 0.0092520488     4975.888    5634.8688    10610.757    159036.69 
  689200         3446   0.49932697 -0.0034820866    4977.2479    5616.6794    10593.927    159036.69 
  689300       3446.5   0.49454883 0.0096381401    5042.5355    5562.9325    10605.468    159036.69 
  689400         3447   0.49595952 -0.00036877476    5086.2129    5578.8006    10665.014    159036.69 
  689500       3447.5   0.50627331 0.00028973484    5043.3303    5694.8153    10738.146    159036.69 
  689600         3448   0.50786984 0.0031849023    5051.5782    5712.7739    10764.352    159036.69 
  689700       3448.5   0.50475666 0.00080370876    5033.1174    5677.7553    10710.873    159036.69 
  689800         3449   0.49870103 0.0065196122      5090.09    5609.6385    10699.729    159036.69 
  689900       3449.5   0.49110384 -0.0078567854    5046.0985    5524.1815     10570.28    159036.69 
  690000         3450   0.49958665 0.0067023556    5041.1673    5619.6004    10660.768    159036.69 
  690100       3450.5   0.50078501 0.00081479503    5043.0756    5633.0802    10676.156    159036.69 
  690200         3451   0.50254992 -0.00045954332    5050.2194    5652.9328    10703.152    159036.69 
  690300       3451.5   0.49826274 0.0053027482     5014.402    5604.7085     10619.11    159036.69 
  690400         3452   0.49542287 -0.0036337406    5100.6573    5572.7642    10673.422    159036.69 
  690500       3452.5   0.50192236 0.0076328474    5065.9378    5645.8737    10711.812    159036.69 
  690600         3453   0.49935602 0.00047862882    5071.9833    5617.0062     10688.99    159036.69 
  690700       3453.5   0.49999643  0.001258686    5161.0784    5624.2098    10785.288    159036.69 
  690800         3454   0.50258585 0.0033168437    5090.8575     5653.337    10744.194    159036.69 
  690900       3454.5   0.50115389 0.0037171397    5060.5715    5637.2295    10697.801    159036.69 
  691000         3455   0.49943363 0.0037892564    5100.6746    5617.8792    10718.554    159036.69 
  691100       3455.5    0.5038887 0.00085645015     5056.404    5667.9921    10724.396    159036.69 
  691200         3456   0.50268803 0.0029310947     5039.767    5654.4863    10694.253    159036.69 
  691300       3456.5   0.49791033 0.0048883297    5012.8558    5600.7443      10613.6    159036.69 
  691400         3457   0.49886195  0.001724827    5005.4314    5611.4487     10616.88    159036.69 
  691500       3457.5   0.49823493 0.0013914675    5052.3429    5604.3956    10656.739    159036.69 
  691600         3458   0.49332001  0.004469822    5040.1398    5549.1101     10589.25    159036.69 
  691700       3458.5    0.4968215 -0.0012238543    5014.1417    5588.4967    10602.638    159036.69 
  691800         3459   0.50234797 0.0031101822    5031.0368    5650.6611    10681.698    159036.69 
  691900       3459.5   0.49744051 0.0034621717    5007.1427    5595.4596    10602.602    159036.69 
  692000         3460   0.50289739 -0.0013166612     5098.778    5656.8413    10755.619    159036.69 
  692100       3460.5   0.50969122 0.0029142351    5061.3969    5733.2617    10794.659    159036.69 
  692200         3461   0.50800458 0.0035693534    5014.9259    5714.2896    10729.215    159036.69 
  692300       3461.5   0.50787635 0.0029373075     5035.759    5712.8471    10748.606    159036.69 
  692400         3462   0.50095248 0.00078522348      5031.42     5634.964    10666.384    159036.69 
  692500       3462.5    0.5009901 0.0026565183    5091.4833    5635.3871     10726.87    159036.69 
  692600         3463   0.50297402 0.00053098652     5088.207    5657.7032     10745.91    159036.69 
  692700       3463.5   0.49304725 0.0047307321    5094.8441     5546.042    10640.886    159036.69 
  692800         3464   0.49240326 -0.0018260703     5036.984    5538.7981    10575.782    159036.69 
  692900       3464.5   0.49854384 -0.0010623044    5019.6645    5607.8704    10627.535    159036.69 
  693000         3465   0.49210639 0.0053483438    5031.3002    5535.4588    10566.759    159036.69 
  693100       3465.5   0.49645844 -0.00095163267    4984.0787    5584.4128    10568.491    159036.69 
  693200         3466   0.49835337 0.0033358348    5060.2885    5605.7279    10666.016    159036.69 
  693300       3466.5   0.50078768 0.0017613477    5067.6982    5633.1102    10700.808    159036.69 
  693400         3467   0.50590745 0.00068968788    5074.4032    5690.6999    10765.103    159036.69 
  693500       3467.5   0.50617922 0.0031216824     4987.462     5693.757    10681.219    159036.69 
  693600         3468   0.50477685 0.00053604112    4988.5223    5677.9823    10666.505    159036.69 
  693700       3468.5   0.49868649  0.010636335    5014.5056     5609.475    10623.981    159036.69 
  693800         3469   0.49959382 -0.0020052168    5009.5338    5619.6811    10629.215    159036.69 
  693900       3469.5   0.49560373 0.0041108758    5065.9096    5574.7985    10640.708    159036.69 
  694000         3470   0.49826297 -0.00062455613    5003.5286     5604.711     10608.24    159036.69 
  694100       3470.5   0.49844384 0.0018173201    5017.9796    5606.7456    10624.725    159036.69 
  694200         3471   0.50407561 0.0041247334    4966.6478    5670.0946    10636.742    159036.69 
  694300       3471.5   0.49900722 0.00095846486     5046.663    5613.0828    10659.746    159036.69 
  694400         3472   0.49899046 0.0059176489    5033.8063    5612.8942    10646.701    159036.69 
  694500       3472.5   0.50034604 -0.0033217109    4975.5932    5628.1425    10603.736    159036.69 
  694600         3473   0.49774658  0.007272936    5001.3172    5598.9024     10600.22    159036.69 
  694700       3473.5   0.50561838 -0.0040404208    5026.7443    5687.4483    10714.193    159036.69 
  694800         3474    0.5007276 0.0055513549    5074.0014    5632.4344    10706.436    159036.69 
  694900       3474.5   0.50151196 -0.0029721909    5087.1558    5641.2573    10728.413    159036.69 
  695000         3475   0.49973776 0.00074550183    5108.4197    5621.3002     10729.72    159036.69 
  695100       3475.5   0.50419762 0.0034596217    4991.8798    5671.4669    10663.347    159036.69 
  695200         3476   0.50550802 -0.00029402375    5021.9194    5686.2069    10708.126    159036.69 
  695300       3476.5   0.49828552  0.007456027    5140.4744    5604.9646    10745.439    159036.69 
  695400         3477   0.50990484 0.0020573394    5091.9703    5735.6646    10827.635    159036.69 
  695500       3477.5   0.50665255 -0.0022976595    5051.5198    5699.0812    10750.601    159036.69 
  695600         3478    0.4970698 0.0035737929    5078.1014    5591.2896    10669.391    159036.69 
  695700       3478.5   0.50539923 -0.0024656466    5050.7577    5684.9832    10735.741    159036.69 
  695800         3479   0.49824648 0.0046317079    5078.9293    5604.5255    10683.455    159036.69 
  695900       3479.5   0.49941424 -0.0027335463     5049.119     5617.661     10666.78    159036.69 
  696000         3480   0.49776626 0.0079119171    5055.6774    5599.1238    10654.801    159036.69 
  696100       3480.5   0.49689759 0.00079017564    5082.7521    5589.3526    10672.105    159036.69 
  696200         3481   0.49567836 0.00020477741    5100.8328    5575.6381    10676.471    159036.69 
  696300       3481.5   0.50026048 0.0088570899    5014.9934      5627.18    10642.173    159036.69 
  696400         3482    0.5049668 0.0027447715     5011.517    5680.1191    10691.636    159036.69 
  696500       3482.5   0.50307923 0.00044717116    5004.9825    5658.8867    10663.869    159036.69 
  696600         3483   0.50276805 0.0035596329    5000.6089    5655.3864    10655.995    159036.69 
  696700       3483.5   0.49779775 0.0067020879    5027.0303     5599.478    10626.508    159036.69 
  696800         3484   0.49657301 -0.000763035    5037.1107    5585.7015    10622.812    159036.69 
  696900       3484.5   0.50445957 0.0070525671    5050.0228    5674.4135    10724.436    159036.69 
  697000         3485   0.50540789 -0.0015103181    4937.7173    5685.0807    10622.798    159036.69 
  697100       3485.5   0.50747228 0.0064614507    5058.5717     5708.302    10766.874    159036.69 
  697200         3486   0.49769647 -0.0014287559    5104.9861    5598.3387    10703.325    159036.69 
  697300       3486.5   0.50097681 -0.0035564114    5002.9296    5635.2376    10638.167    159036.69 
  697400         3487   0.49616915   0.00584949    5089.5116    5581.1586     10670.67    159036.69 
  697500       3487.5     0.498573 -0.0035500522    5041.3223    5608.1984    10649.521    159036.69 
  697600         3488   0.49331201 0.0045533423    5102.6667    5549.0202    10651.687    159036.69 
  697700       3488.5   0.50237804 0.0011508157    5023.4546    5650.9994    10674.454    159036.69 
  697800         3489   0.50274581 0.0043993496      5052.87    5655.1362    10708.006    159036.69 
  697900       3489.5      0.49622 0.0011259876    5083.5675    5581.7307    10665.298    159036.69 
  698000         3490   0.49945098  0.006052314    5089.9322    5618.0743    10708.007    159036.69 
  698100       3490.5   0.50928377 0.00043156494    5072.0349    5728.6785    10800.713    159036.69 
  698200         3491   0.50718062 0.0044672664     5013.608    5705.0212    10718.629    159036.69 
  698300       3491.5   0.49970736 -0.00012060934    5073.3962    5620.9582    10694.354    159036.69 
  698400         3492   0.49341254 0.0039782425    5016.2132     5550.151    10566.364    159036.69 
  698500       3492.5   0.49145431 0.0022042851     5027.132    5528.1238    10555.256    159036.69 
  698600         3493   0.49550013 0.0022682084    4993.3821    5573.6332    10567.015    159036.69 
  698700       3493.5   0.49910095  0.003562012    5063.3499     5614.137    10677.487    159036.69 
  698800         3494   0.50591586 0.0054568407    5005.0108    5690.7945    10695.805    159036.69 
  698900       3494.5   0.49255222  0.001139102    5062.9692    5540.4737    10603.443    159036.69 
  699000         3495   0.49069116 -0.00086374089     5064.137    5519.5395    10583.676    159036.69 
  699100       3495.5   0.50075847 0.0014172672    5009.2536    5632.7817    10642.035    159036.69 
  699200         3496   0.50406931 -0.00080982504     5097.319    5670.0236    10767.343    159036.69 
  699300       3496.5   0.49388931 0.00088064044    5057.1987     5555.514    10612.713    159036.69 
  699400         3497   0.49076496 -0.0037635037    5194.9641    5520.3697    10715.334    159036.69 
  699500       3497.5   0.50063468 0.0083541497    5052.1704    5631.3892     10683.56    159036.69 
  699600         3498   0.50322471 -0.0014155568     5034.127    5660.5231     10694.65    159036.69 
  699700       3498.5   0.50004698  0.002252031    5061.3761    5624.7784    10686.154    159036.69 
  699800         3499   0.50247822 0.0019995274      5002.26    5652.1263    10654.386    159036.69 
  699900       3499.5    0.5002025 0.0053025892    4922.5836    5626.5278    10549.111    159036.69 
  700000         3500   0.49697071 -0.0017491307    5001.2286    5590.1751    10591.404    159036.69 
  700100       3500.5   0.49298743 0.0087165677    4972.2463    5545.3691    10517.615    159036.69 
  700200         3501   0.49652993 0.0024558906    4986.4603    5585.2169    10571.677    159036.69 
  700300       3501.5   0.49680042 -0.0016136301    5032.9692    5588.2595    10621.229    159036.69 
  700400         3502   0.49336825 0.0049131233    4956.0054    5549.6527    10505.658    159036.69 
  700500       3502.5   0.49249889 0.00039565723    4963.2122    5539.8737    10503.086    159036.69 
  700600         3503   0.49971257 -0.0021588159    4897.4867    5621.0169    10518.504    159036.69 
  700700       3503.5   0.49059971 0.0060884134    4991.3344    5518.5108    10509.845    159036.69 
  700800         3504   0.48676313 -0.00021627482    4999.3907    5475.3551    10474.746    159036.69 
  700900       3504.5   0.49473152 0.0025089559    4999.1447    5564.9875    10564.132    159036.69 
  701000         3505   0.49292336 0.00045351249    5094.9331    5544.6484    10639.581    159036.69 
  701100       3505.5   0.49666176 0.0056200924    5030.5842    5586.6999    10617.284    159036.69 
  701200         3506    0.4994184 0.0001868028    5012.9943    5617.7079    10630.702    159036.69 
  701300       3506.5   0.49741595 0.0020182747    5063.6978    5595.1833    10658.881    159036.69 
  701400         3507   0.50146447 0.0054718898    4985.5736     5640.723    10626.297    159036.69 
  701500       3507.5   0.49880346 -0.0022788363    5001.1869    5610.7907    10611.978    159036.69 
  701600         3508    0.4951897 0.0015428317    4965.3587    5570.1413      10535.5    159036.69 
  701700       3508.5   0.49726553 0.0033745985    4984.4777    5593.4913    10577.969    159036.69 
  701800         3509   0.49561561 -0.00057787826    5052.1762    5574.9322    10627.108    159036.69 
  701900       3509.5   0.50071821 0.0058203409    5074.3054    5632.3288    10706.634    159036.69 
  702000         3510   0.49623732 -0.0046364485    5098.5298    5581.9255    10680.455    159036.69 
  702100       3510.5   0.49726727  0.004224694    5039.3331    5593.5108    10632.844    159036.69 
  702200         3511   0.49286362 0.0041204545    5013.7288    5543.9764    10557.705    159036.69 
  702300       3511.5   0.49851957 -0.0047264997    5011.8414    5607.5974    10619.439    159036.69 
  702400         3512    0.5038664 0.0031018107    5030.0174    5667.7413    10697.759    159036.69 
  702500       3512.5   0.50078097 0.0018488765    5038.7431    5633.0348    10671.778    159036.69 
  702600         3513   0.49878495 0.0041659819    5048.4037    5610.5825    10658.986    159036.69 
  702700       3513.5   0.50831904 -0.0037311751    4949.8659    5717.8268    10667.693    159036.69 
  702800         3514   0.49927407  0.010484198    4977.1943    5616.0844    10593.279    159036.69 
  702900       3514.5   0.49661536 -0.00091278101    4944.8081    5586.1778    10530.986    159036.69 
  703000         3515   0.49685096  0.002353918    4965.0042     5588.828    10553.832    159036.69 
  703100       3515.5   0.49877752 -0.00084767553    4998.8737    5610.4989    10609.373    159036.69 
  703200         3516   0.50210551 0.0071027051    4998.6416    5647.9338    10646.575    159036.69 
  703300       3516.5   0.49989076 -0.0020611707    5011.2129    5623.0212    10634.234    159036.69 
  703400         3517    0.5069676 0.0048437774    5032.7269    5702.6251    10735.352    159036.69 
  703500       3517.5   0.50312403 0.0058156675    5095.4031    5659.3907    10754.794    159036.69 
  703600         3518   0.50067827 0.0032348468    5082.4901    5631.8795     10714.37    159036.69 
  703700       3518.5   0.50114151 0.00266