LAMMPS (3 Mar 2020)
OMP_NUM_THREADS environment is not set. Defaulting to 1 thread. (../comm.cpp:94)
  using 1 OpenMP thread(s) per MPI task
#run with lmp_serial -pk omp 8 -sf omp -in in.run_loop

#SETUP
# Runs on the first loop only
shell del *.dump     # delete all dump files before first run CAREFUL WITH THIS
shell del restart.time*     # delete all current restart files before first run
shell lmp_serial -in in.run_setup     # first run of file, generate first restart file

#VARIABLES
variable N         equal  50  #MUST BE SAME AS SETUP FILE FOR PHASEPLOT
variable len       equal  15
variable T         equal  0.5
variable t_step    equal  0.005 #originally 0.005
variable mix_steps index  10000 20000 30000 50000 50000 100000
variable mix_tau   equal  ${t_step}*${mix_steps}
variable mix_tau   equal  0.005*${mix_steps}
variable mix_tau   equal  0.005*10000
variable run_steps equal  10000 # steps to run simulation in order to reach steady state
variable run_tau   equal  ${t_step}*${run_steps} # this is the time in LJ units
variable run_tau   equal  0.005*${run_steps} 
variable run_tau   equal  0.005*10000 
#1000 particles averages 35,000 steps per minute

#LOOP START
label loop  #start loop from here
read_restart restart.time*
  restoring atom style molecular from restart
  orthogonal box = (-0.11066 -0.581644 -0.11066) to (5.81066 30.5416 5.81066)
  1 by 1 by 1 MPI processor grid
  restoring pair style lj/cut from restart
  restoring bond style harmonic from restart
  restoring angle style harmonic from restart
  750 atoms
  700 bonds
  650 angles
  2 = max # of 1-2 neighbors
  2 = max # of 1-3 neighbors
  4 = max # of 1-4 neighbors
  6 = max # of special neighbors
  special bonds CPU = 0.0119679 secs
  read_restart CPU = 0.03474 secs
# this reads in latest restart file, * is wildcard for timestep


# THERMAL
timestep ${t_step}
timestep 0.005
thermo   100
thermo_style custom step time temp press pe ke etotal vol
thermo_modify norm no


# DUMP OUTPUT
dump  1  all custom 5000 output_T_${T}_time_*.dump id mol type x y z vx vy vz
dump  1  all custom 5000 output_T_0.5_time_*.dump id mol type x y z vx vy vz
# dumps all positions etc every N  steps
dump_modify 1 sort id

# FIX
fix 2 all nph iso 0.0000001 0.0000001 10   #reduced target pressure here
fix 3 all langevin ${T} ${T} 1 123456 #as above
fix 3 all langevin 0.5 ${T} 1 123456 
fix 3 all langevin 0.5 0.5 1 123456 
run ${mix_steps}
run 10000
Neighbor list info ...
  update every 1 steps, delay 10 steps, check yes
  max neighbors/atom: 2000, page size: 100000
  master list distance cutoff = 1.42
  ghost atom cutoff = 1.9
  binsize = 0.71, bins = 9 44 9
  1 neighbor lists, perpetual/occasional/extra = 1 0 0
  (1) pair lj/cut, perpetual
      attributes: half, newton on
      pair build: half/bin/newton
      stencil: half/bin/3d/newton
      bin: standard
Per MPI rank memory allocation (min/avg/max) = 8.094 | 8.094 | 8.094 Mbytes
Step Time Temp Press PotEng KinEng TotEng Volume 
       0            0    1.4860032    2.1167595    1805.6098    1669.5246    3475.1344    1091.2456 
     100          0.5    1.1465681   0.97896779    1238.6985    1288.1693    2526.8678    1098.0526 
     200            1   0.83862199    1.2296476     1022.423    942.19181    1964.6148    1114.6888 
     300          1.5   0.71127674   0.64326681    810.08998    799.11942    1609.2094    1136.9486 
     400            2   0.62531472   0.74717313    676.94485    702.54108    1379.4859    1162.3168 
     500          2.5   0.58443432   0.52869886    642.47443    656.61196    1299.0864    1188.2853 
     600            3   0.54245887   0.63395104    596.75309    609.45254    1206.2056     1211.631 
     700          3.5   0.51441354   0.56764384    562.32282    577.94361    1140.2664    1232.4784 
     800            4   0.50072098   0.41191782    550.96274    562.56002    1113.5228    1251.7911 
     900          4.5   0.52191384    0.4249394    518.69997     586.3702    1105.0702    1270.6836 
    1000            5   0.48361866   0.21689158    529.82063    543.34556    1073.1662    1289.1011 
    1100          5.5   0.49904661   0.26855472    523.59921    560.67886    1084.2781    1306.5477 
    1200            6    0.4932701   0.37135507    531.98339    554.18896    1086.1723    1323.9464 
    1300          6.5   0.47666797   0.28413357    535.46929    535.53646    1071.0057    1341.6697 
    1400            7   0.48245946   0.48571895    518.54928    542.04321    1060.5925    1358.8706 
    1500          7.5   0.46450796   0.24091115    510.80861     521.8747    1032.6833    1376.3613 
    1600            8   0.50801325   0.12844403    517.77153    570.75289    1088.5244    1392.9319 
    1700          8.5   0.49362028   0.31112475    504.66161    554.58238     1059.244    1408.1295 
    1800            9   0.50664448   0.34948977    496.21134    569.21507    1065.4264    1423.4535 
    1900          9.5   0.49684164   0.20472873    530.63528    558.20158    1088.8369      1438.81 
    2000           10   0.50635584   0.31546451    512.66129    568.89078    1081.5521      1454.44 
    2100         10.5   0.47165215   0.17459362    523.23267    529.90118    1053.1339    1469.8678 
    2200           11   0.49204364   0.11846331     519.2643    552.81103    1072.0753    1483.9096 
    2300         11.5   0.50375686   0.18847745    522.58769    565.97083    1088.5585    1497.3601 
    2400           12   0.51945917   0.22021538    520.63218    583.61238    1104.2446    1510.7362 
    2500         12.5   0.52588486   0.12296247     522.7438    590.83164    1113.5754    1524.0018 
    2600           13   0.51545572   0.20769679    556.90775    579.11451    1136.0223    1536.5214 
    2700         13.5   0.50451826  0.053980303    544.69201    566.82627    1111.5183     1549.243 
    2800           14   0.52088288   0.36171913    521.49797    585.21192    1106.7099    1561.1266 
    2900         14.5   0.50748654   0.10115062    525.70363    570.16113    1095.8648    1574.2053 
    3000           15   0.50813193   0.11130468    515.80215    570.88622    1086.6884    1586.7789 
    3100         15.5   0.49371558   0.11488594    536.43956    554.68946     1091.129    1599.0999 
    3200           16   0.52322763   0.15907711    522.15402    587.84624    1110.0003     1611.087 
    3300         16.5   0.49414064   0.17985314    522.17484    555.16701    1077.3418    1623.2159 
    3400           17   0.50634394   0.15684387    526.57909    568.87741    1095.4565    1635.8043 
    3500         17.5   0.51438214 -0.073320104    541.20142    577.90834    1119.1098    1648.4274 
    3600           18   0.50455897   0.28607992     535.2037    566.87201    1102.0757    1659.5881 
    3700         18.5   0.51886735  0.029810512    500.19344    582.94747    1083.1409    1671.7652 
    3800           19   0.48350897   0.35633391    518.63399    543.22233    1061.8563    1683.9733 
    3900         19.5   0.49896785 -0.054315973     514.1912    560.59038    1074.7816    1697.3548 
    4000           20   0.50036205   0.12168058     518.7489    562.15677    1080.9057    1709.3489 
    4100         20.5   0.47436577    0.2604526    514.37859    532.94994    1047.3285     1720.538 
    4200           21   0.49410631 -0.032481542    523.60778    555.12844    1078.7362     1732.787 
    4300         21.5   0.50663747   0.20590672    511.84047     569.2072    1081.0477    1744.4191 
    4400           22   0.48708791   0.13556829    524.24863    547.24327    1071.4919     1757.074 
    4500         22.5   0.50342081   0.10587513     529.3087    565.59328     1094.902    1769.9041 
    4600           23   0.51306957   0.10778751    519.69502    576.43367    1096.1287    1782.5645 
    4700         23.5    0.4977431  0.024712967    524.46605    559.21438    1083.6804    1795.2237 
    4800           24   0.51078503    0.1746464    505.26867    573.86698    1079.1356    1807.6278 
    4900         24.5   0.50602237  0.032299505    509.19612    568.51614    1077.7123    1821.0198 
    5000           25   0.49027125   0.12743308    516.57841    550.81975    1067.3982    1834.3943 
    5100         25.5   0.48242488    0.3141394    476.11705    542.00435    1018.1214    1847.6167 
    5200           26   0.51650045  0.038821733    523.34283    580.28825    1103.6311    1862.6729 
    5300         26.5   0.50899193    0.1597299    519.97107    571.85244    1091.8235    1877.0374 
    5400           27   0.50286274  0.047811868    509.83137    564.96629    1074.7977    1890.9195 
    5500         27.5    0.4906907  0.030665343    505.66214      551.291    1056.9531    1903.9614 
    5600           28   0.47974119  0.042569097    526.45057    538.98922    1065.4398    1916.9612 
    5700         28.5   0.50156005   0.13271848    504.64907    563.50271    1068.1518    1930.1988 
    5800           29   0.50896281   0.20628067     479.1514    571.81971    1050.9711    1943.7543 
    5900         29.5   0.51535468  0.052814262    498.31635    579.00099    1077.3173    1957.5921 
    6000           30   0.50512681  0.090849194    477.16838    567.50997    1044.6784    1971.3042 
    6100         30.5   0.49194225   0.13803057    493.94058    552.69711    1046.6377    1984.7827 
    6200           31   0.50282927  0.058017943     497.0234    564.92868    1061.9521    1999.2103 
    6300         31.5   0.52197574  0.080343196    506.03447    586.43975    1092.4742     2014.529 
    6400           32   0.51149788   0.35031696    496.22862    574.66787    1070.8965    2029.6339 
    6500         32.5    0.4907917 -0.045131703    512.95028    551.40447    1064.3548    2046.0384 
    6600           33    0.5000571  0.093296825    519.86282    561.81416     1081.677    2061.3522 
    6700         33.5   0.52231402    0.1730259    519.04285     586.8198    1105.8626    2076.0892 
    6800           34   0.51658624   0.14756441    517.56231    580.38464     1097.947    2090.8319 
    6900         34.5   0.52949807 -0.0061064084    508.63775    594.89108    1103.5288    2105.9953 
    7000           35   0.51056103   0.29092115    482.92582    573.61532    1056.5411    2120.0701 
    7100         35.5   0.50094079  0.070097209    487.26797    562.80698    1050.0749    2135.2516 
    7200           36   0.47573596   0.10201464    512.03415    534.48935    1046.5235    2149.8452 
    7300         36.5   0.51768785   0.20883402    487.51628     581.6223    1069.1386    2164.3046 
    7400           37    0.5070271  -0.15469155    502.80296    569.64495    1072.4479    2179.4938 
    7500         37.5    0.5185507   0.13525817    511.25468    582.59171    1093.8464    2192.8502 
    7600           38   0.51180251   0.21047071    521.82656    575.01012    1096.8367    2205.6704 
    7700         38.5   0.50435026 -0.042408146    512.70752    566.63752     1079.345    2219.9521 
    7800           39   0.49579153   0.18526579    513.11342    557.02179    1070.1352    2233.4993 
    7900         39.5   0.49817419  0.086249761    501.40986    559.69871    1061.1086    2247.1837 
    8000           40   0.48974642  0.025679218    502.04881     550.2301    1052.2789    2259.9268 
    8100         40.5   0.49387298  0.077360423    487.90797     554.8663    1042.7743    2273.3288 
    8200           41   0.47489583   0.13090522    492.26005    533.54546    1025.8055    2286.2883 
    8300         41.5   0.49345929 -0.042732003    484.26263    554.40151    1038.6641    2300.2951 
    8400           42   0.51052055   0.20838365    501.85018    573.56984      1075.42    2313.5877 
    8500         42.5   0.50042626  0.017193565     513.9636    562.22891    1076.1925    2327.5567 
    8600           43   0.49380661   0.11018487    532.64666    554.79173    1087.4384    2340.3381 
    8700         43.5   0.49920582  0.082052302    517.30108    560.85774    1078.1588    2353.6926 
    8800           44   0.49225495  0.040340649    486.15959    553.04844     1039.208    2368.2288 
    8900         44.5   0.47613813   0.03324456    494.04122    534.94119    1028.9824    2383.3357 
    9000           45   0.49796959  0.079123137    492.70406    559.46884    1052.1729    2397.8825 
    9100         45.5   0.48453763 -0.024163509    506.78155    544.37803    1051.1596    2412.2758 
    9200           46   0.49756728  0.068390951    489.10367    559.01684    1048.1205    2426.6201 
    9300         46.5   0.50223292   0.14515781    495.88931    564.25868     1060.148    2441.4066 
    9400           47   0.48075302 -0.060938443    518.44435    540.12602    1058.5704    2455.5463 
    9500         47.5   0.49475099   0.03907981    502.45747    555.85274    1058.3102    2467.8612 
    9600           48   0.48318634   0.11900333    509.05492    542.85985    1051.9148    2481.7563 
    9700         48.5   0.48168482  0.052461651    517.00823    541.17289    1058.1811    2497.2739 
    9800           49    0.4848687  0.049838672    507.48597    544.74998     1052.236    2512.8873 
    9900         49.5   0.52108779  0.038955502     491.0477    585.44213    1076.4898    2527.5419 
   10000           50   0.51549344   0.15283842    522.91942    579.15688    1102.0763    2541.8721 
Loop time of 4.76748 on 1 procs for 10000 steps with 750 atoms

Performance: 906138.523 tau/day, 2097.543 timesteps/s
88.5% CPU use with 1 MPI tasks x 1 OpenMP threads

MPI task timing breakdown:
Section |  min time  |  avg time  |  max time  |%varavg| %total
---------------------------------------------------------------
Pair    | 0.39701    | 0.39701    | 0.39701    |   0.0 |  8.33
Bond    | 1.2238     | 1.2238     | 1.2238     |   0.0 | 25.67
Neigh   | 0.56597    | 0.56597    | 0.56597    |   0.0 | 11.87
Comm    | 0.24412    | 0.24412    | 0.24412    |   0.0 |  5.12
Output  | 0.46603    | 0.46603    | 0.46603    |   0.0 |  9.78
Modify  | 1.7811     | 1.7811     | 1.7811     |   0.0 | 37.36
Other   |            | 0.08947    |            |       |  1.88

Nlocal:    750 ave 750 max 750 min
Histogram: 1 0 0 0 0 0 0 0 0 0
Nghost:    897 ave 897 max 897 min
Histogram: 1 0 0 0 0 0 0 0 0 0
Neighs:    1060 ave 1060 max 1060 min
Histogram: 1 0 0 0 0 0 0 0 0 0

Total # of neighbors = 1060
Ave neighs/atom = 1.41333
Ave special neighs/atom = 5.2
Neighbor list builds = 744
Dangerous builds = 46

unfix 2
unfix 3
fix 4 all nve
fix 5 all langevin ${T} ${T} 1 123456
fix 5 all langevin 0.5 ${T} 1 123456
fix 5 all langevin 0.5 0.5 1 123456
fix recen1 all recenter INIT INIT INIT


# RUN
run ${run_steps}
run 10000
Per MPI rank memory allocation (min/avg/max) = 8.136 | 8.136 | 8.136 Mbytes
Step Time Temp Press PotEng KinEng TotEng Volume 
   10000           50   0.51549344   0.15283842    522.91942    579.15688    1102.0763    2541.8721 
   10100         50.5   0.52486235  0.044933256    494.75247    589.68285    1084.4353    2541.8721 
   10200           51   0.50908517  0.033888654    542.99185    571.95719     1114.949    2541.8721 
   10300         51.5   0.50286804    0.0987822    527.62707    564.97225    1092.5993    2541.8721 
   10400           52   0.49506894   0.12296202    525.34644    556.20995    1081.5564    2541.8721 
   10500         52.5   0.51350249   0.11604209    501.20892    576.92004     1078.129    2541.8721 
   10600           53   0.50373579    0.1237011    506.33992    565.94716    1072.2871    2541.8721 
   10700         53.5   0.50017165  0.090622791    492.99202    561.94285    1054.9349    2541.8721 
   10800           54   0.50543491   0.13885699     504.5675    567.85612    1072.4236    2541.8721 
   10900         54.5   0.50134575 -0.045660265    516.43506    563.26195     1079.697    2541.8721 
   11000           55   0.49971858  0.042278314    526.53233    561.43382    1087.9662    2541.8721 
   11100         55.5   0.51344098   0.12785685    516.19655    576.85094    1093.0475    2541.8721 
   11200           56   0.50846272 -0.053040634    506.63265    571.25786    1077.8905    2541.8721 
   11300         56.5   0.50280532   0.20352044    527.58332    564.90177    1092.4851    2541.8721 
   11400           57   0.52491426 -0.028096503    514.14583    589.74117     1103.887    2541.8721 
   11500         57.5   0.49346644  0.094109641    516.43428    554.40955    1070.8438    2541.8721 
   11600           58   0.51455054  0.078809298    513.10972    578.09754    1091.2073    2541.8721 
   11700         58.5    0.5066002  0.057385374    514.77309    569.16532    1083.9384    2541.8721 
   11800           59   0.48997196   0.32564273    511.36314    550.48349    1061.8466    2541.8721 
   11900         59.5   0.50370548  0.044293011    524.71744     565.9131    1090.6305    2541.8721 
   12000           60   0.51313517  0.028361591    524.10855    576.50736    1100.6159    2541.8721 
   12100         60.5   0.50741156 -0.050602049    511.14391    570.07689    1081.2208    2541.8721 
   12200           61   0.50267824  0.054916662    536.50549      564.759    1101.2645    2541.8721 
   12300         61.5   0.53300886   0.11098409    538.92502    598.83546    1137.7605    2541.8721 
   12400           62    0.5227587  0.038109245    508.36344     587.3194    1095.6828    2541.8721 
   12500         62.5   0.50203368   0.07203484    501.13635    564.03483    1065.1712    2541.8721 
   12600           63   0.49491579 -0.049275589    514.76017    556.03789    1070.7981    2541.8721 
   12700         63.5   0.46743953   0.10368336    511.96579    525.16831    1037.1341    2541.8721 
   12800           64   0.48557256   0.16867273    511.93482    545.54077    1057.4756    2541.8721 
   12900         64.5   0.48029205   0.01916255    523.24888    539.60811     1062.857    2541.8721 
   13000           65   0.49942696  0.023412806    510.87288    561.10619    1071.9791    2541.8721 
   13100         65.5   0.49672792  0.021022649    528.94696    558.07382    1087.0208    2541.8721 
   13200           66   0.50735305    0.1368166    511.28453    570.01115    1081.2957    2541.8721 
   13300         66.5    0.4955561  0.089952891    519.64872    556.75728     1076.406    2541.8721 
   13400           67   0.50060824   0.14643437    504.02466    562.43336     1066.458    2541.8721 
   13500         67.5    0.4947736  0.021220821    518.21438    555.87814    1074.0925    2541.8721 
   13600           68   0.50194045   0.01707673    496.11579     563.9301    1060.0459    2541.8721 
   13700         68.5   0.49523269    0.1363407    506.93557    556.39393    1063.3295    2541.8721 
   13800           69    0.4876927   0.15567138    514.46554    547.92275    1062.3883    2541.8721 
   13900         69.5   0.52423863 -0.025703826    486.69653     588.9821    1075.6786    2541.8721 
   14000           70    0.4949023   0.12882073    525.30121    556.02274    1081.3239    2541.8721 
   14100         70.5    0.5001777  0.017546765    511.80651    561.94965    1073.7562    2541.8721 
   14200           71    0.4923135  0.080046721    531.70393    553.11422    1084.8182    2541.8721 
   14300         71.5   0.52291449   0.10988532    496.90198    587.49443    1084.3964    2541.8721 
   14400           72   0.51689653  0.047813249    519.06963    580.73325    1099.8029    2541.8721 
   14500         72.5    0.5132697  0.056410475    543.88415    576.65851    1120.5427    2541.8721 
   14600           73   0.49193837  0.027983495     528.1265    552.69276    1080.8193    2541.8721 
   14700         73.5   0.50515145   0.06071147    527.37062    567.53765    1094.9083    2541.8721 
   14800           74   0.50139066 -0.035071446    534.76512    563.31241    1098.0775    2541.8721 
   14900         74.5   0.49883437   0.16894126    512.91277    560.44041    1073.3532    2541.8721 
   15000           75   0.51000116  0.075125079    512.93694    572.98631    1085.9232    2541.8721 
   15100         75.5   0.48785141  0.062012392    549.77391    548.10106     1097.875    2541.8721 
   15200           76    0.5305457  0.025016414    527.26298    596.06809    1123.3311    2541.8721 
   15300         76.5   0.51028504   0.15760157    537.74072    573.30524     1111.046    2541.8721 
   15400           77   0.51115213   0.11166847    517.16297    574.27942    1091.4424    2541.8721 
   15500         77.5    0.5214001  0.075585347     518.5372    585.79301    1104.3302    2541.8721 
   15600           78   0.48662397  0.007135796    526.41764    546.72203    1073.1397    2541.8721 
   15700         78.5   0.51204838  0.065222602    507.28188    575.28636    1082.5682    2541.8721 
   15800           79     0.511541  0.097090673    508.47966    574.71632     1083.196    2541.8721 
   15900         79.5   0.53271037   0.13097529    498.67235     598.5001    1097.1725    2541.8721 
   16000           80   0.52716653   0.15900198    512.37989     592.2716    1104.6515    2541.8721 
   16100         80.5   0.51625767 -0.039845354    531.55485    580.01549    1111.5703    2541.8721 
   16200           81   0.52905345     0.256775    511.27323    594.39156    1105.6648    2541.8721 
   16300         81.5   0.51286152 -0.053466132    517.26085    576.19992    1093.4608    2541.8721 
   16400           82   0.51135867    0.2138725    520.32642    574.51147    1094.8379    2541.8721 
   16500         82.5   0.49726124 -0.069498597    513.76911      558.673    1072.4421    2541.8721 
   16600           83   0.49334568 -0.006488481    508.20468    554.27387    1062.4786    2541.8721 
   16700         83.5   0.50650004   0.20724245    496.61403     569.0528    1065.6668    2541.8721 
   16800           84   0.51404558 -0.030408119    495.37047    577.53021    1072.9007    2541.8721 
   16900         84.5   0.50049254   0.10550832    499.96524    562.30337    1062.2686    2541.8721 
   17000           85   0.49256608   0.10239083    476.40671    553.39799    1029.8047    2541.8721 
   17100         85.5   0.51554492  0.021416589    483.58802    579.21471    1062.8027    2541.8721 
   17200           86   0.51440117  0.023550328    516.94113    577.92972    1094.8708    2541.8721 
   17300         86.5   0.47969281  0.047314211    505.25415    538.93487     1044.189    2541.8721 
   17400           87   0.49519159   0.11481106    489.41501    556.34775    1045.7628    2541.8721 
   17500         87.5   0.49260478  0.099882994    480.60835    553.44147    1034.0498    2541.8721 
   17600           88   0.50373674 -0.016550693    513.36458    565.94823    1079.3128    2541.8721 
   17700         88.5   0.49327879  0.073799214    506.17621    554.19872    1060.3749    2541.8721 
   17800           89   0.47998266   0.14755702    513.78196    539.26052    1053.0425    2541.8721 
   17900         89.5   0.50296092   0.03117044    498.88081    565.07659    1063.9574    2541.8721 
   18000           90   0.50252261 -0.080711575    505.02719    564.58415    1069.6113    2541.8721 
   18100         90.5   0.49905557   0.25513162    499.54099    560.68893    1060.2299    2541.8721 
   18200           91   0.49848403  0.099209441    498.63261     560.0468    1058.6794    2541.8721 
   18300         91.5   0.52260299 -0.025043258    494.78738    587.14446    1081.9318    2541.8721 
   18400           92   0.48717325   0.05338602    529.15556    547.33915    1076.4947    2541.8721 
   18500         92.5   0.50968652 -0.016200412    510.54252     572.6328    1083.1753    2541.8721 
   18600           93   0.49832365  0.053854911    510.71019    559.86662    1070.5768    2541.8721 
   18700         93.5   0.50411533   0.10054784    518.57635    566.37357    1084.9499    2541.8721 
   18800           94   0.50275348  0.039552488    513.84556    564.84354    1078.6891    2541.8721 
   18900         94.5   0.48550459   0.10492986     514.5276     545.4644     1059.992    2541.8721 
   19000           95   0.49559372   0.05351393    511.08532    556.79954    1067.8849    2541.8721 
   19100         95.5     0.503709  0.041514505    504.06941    565.91706    1069.9865    2541.8721 
   19200           96   0.50288828   0.19640653    495.25093    564.99498    1060.2459    2541.8721 
   19300         96.5   0.50199076 -0.021875439    514.49269    563.98662    1078.4793    2541.8721 
   19400           97   0.51688167  0.086821559    536.07588    580.71655    1116.7924    2541.8721 
   19500         97.5   0.50739194   0.10947817    540.24303    570.05485    1110.2979    2541.8721 
   19600           98   0.50981768 0.0069002418    506.40123    572.78016    1079.1814    2541.8721 
   19700         98.5   0.50779544  0.046692331    535.71164    570.50818    1106.2198    2541.8721 
   19800           99   0.49976129  0.060639528     518.9727    561.48181    1080.4545    2541.8721 
   19900         99.5   0.51398272  0.048025082    488.21629    577.45958    1065.6759    2541.8721 
   20000          100    0.5121312   0.05924305    541.68862     575.3794     1117.068    2541.8721 
Loop time of 3.17884 on 1 procs for 10000 steps with 750 atoms

Performance: 1358988.369 tau/day, 3145.806 timesteps/s
81.6% CPU use with 1 MPI tasks x 1 OpenMP threads

MPI task timing breakdown:
Section |  min time  |  avg time  |  max time  |%varavg| %total
---------------------------------------------------------------
Pair    | 0.187      | 0.187      | 0.187      |   0.0 |  5.88
Bond    | 0.82479    | 0.82479    | 0.82479    |   0.0 | 25.95
Neigh   | 0.4581     | 0.4581     | 0.4581     |   0.0 | 14.41
Comm    | 0.21477    | 0.21477    | 0.21477    |   0.0 |  6.76
Output  | 0.51189    | 0.51189    | 0.51189    |   0.0 | 16.10
Modify  | 0.91163    | 0.91163    | 0.91163    |   0.0 | 28.68
Other   |            | 0.07066    |            |       |  2.22

Nlocal:    750 ave 750 max 750 min
Histogram: 1 0 0 0 0 0 0 0 0 0
Nghost:    916 ave 916 max 916 min
Histogram: 1 0 0 0 0 0 0 0 0 0
Neighs:    846 ave 846 max 846 min
Histogram: 1 0 0 0 0 0 0 0 0 0

Total # of neighbors = 846
Ave neighs/atom = 1.128
Ave special neighs/atom = 5.2
Neighbor list builds = 691
Dangerous builds = 1
write_restart restart.time*

#This section  of codes allows looping over the list of T values
clear
OMP_NUM_THREADS environment is not set. Defaulting to 1 thread. (../comm.cpp:94)
  using 1 OpenMP thread(s) per MPI task
next mix_steps
jump in.run_loop loop  #jumps back to loop label
read_restart restart.time*
  restoring atom style molecular from restart
  orthogonal box = (-1.07463 -5.64842 -1.07463) to (6.77463 35.6084 6.77463)
  1 by 1 by 1 MPI processor grid
  restoring pair style lj/cut from restart
  restoring bond style harmonic from restart
  restoring angle style harmonic from restart
  750 atoms
  700 bonds
  650 angles
  2 = max # of 1-2 neighbors
  2 = max # of 1-3 neighbors
  4 = max # of 1-4 neighbors
  6 = max # of special neighbors
  special bonds CPU = 0.0109708 secs
  read_restart CPU = 0.0639369 secs
# this reads in latest restart file, * is wildcard for timestep


# THERMAL
timestep ${t_step}
timestep 0.005
thermo   100
thermo_style custom step time temp press pe ke etotal vol
thermo_modify norm no


# DUMP OUTPUT
dump  1  all custom 5000 output_T_${T}_time_*.dump id mol type x y z vx vy vz
dump  1  all custom 5000 output_T_0.5_time_*.dump id mol type x y z vx vy vz
# dumps all positions etc every N  steps
dump_modify 1 sort id

# FIX
fix 2 all nph iso 0.0000001 0.0000001 10   #reduced target pressure here
fix 3 all langevin ${T} ${T} 1 123456 #as above
fix 3 all langevin 0.5 ${T} 1 123456 
fix 3 all langevin 0.5 0.5 1 123456 
run ${mix_steps}
run 20000
Neighbor list info ...
  update every 1 steps, delay 10 steps, check yes
  max neighbors/atom: 2000, page size: 100000
  master list distance cutoff = 1.42
  ghost atom cutoff = 1.9
  binsize = 0.71, bins = 12 59 12
  1 neighbor lists, perpetual/occasional/extra = 1 0 0
  (1) pair lj/cut, perpetual
      attributes: half, newton on
      pair build: half/bin/newton
      stencil: half/bin/3d/newton
      bin: standard
Per MPI rank memory allocation (min/avg/max) = 8.101 | 8.101 | 8.101 Mbytes
Step Time Temp Press PotEng KinEng TotEng Volume 
   20000            0    0.5121312   0.05924305    541.68862     575.3794     1117.068    2541.8721 
   20100          0.5   0.52790407  0.078513095    497.22157    593.10022    1090.3218     2547.624 
   20200            1   0.50110463  0.041108155    539.74918    562.99106    1102.7402    2562.7204 
   20300          1.5   0.51587462    0.1541357    538.50358    579.58514    1118.0887    2587.8557 
   20400            2   0.51235694   0.15128836    513.19968    575.63302    1088.8327    2620.2972 
   20500          2.5   0.51114455 -0.074761444    523.76898    574.27091    1098.0399    2655.7847 
   20600            3   0.49963323  0.084243759    522.03291    561.33794    1083.3708    2691.4313 
   20700          3.5   0.50696435  0.086823401     507.1899    569.57445    1076.7644    2729.3162 
   20800            4   0.50866051   0.12321779    500.80999    571.48008    1072.2901    2763.4784 
   20900          4.5   0.49820576  0.054964329    517.21906    559.73417    1076.9532    2799.2425 
   21000            5   0.50948512  0.093444722     509.7305    572.40653     1082.137    2838.3018 
   21100          5.5   0.49541849  0.079455431     517.2595    556.60267    1073.8622    2879.3113 
   21200            6   0.50775513  0.097897311    535.09832    570.46288    1105.5612    2920.8886 
   21300          6.5   0.50948913  0.024237116    523.59691    572.41104    1096.0079    2964.0004 
   21400            7   0.51615581  0.056717521    493.38584    579.90105    1073.2869     3002.779 
   21500          7.5   0.49684745  0.028420875    515.40964    558.20811    1073.6177    3037.6657 
   21600            8   0.52281556  0.071099131    522.58856    587.38328    1109.9718    3073.2796 
   21700          8.5   0.52177576  0.035381028    524.50314    586.21507    1110.7182    3114.6341 
   21800            9    0.5359241 -0.00044003662    519.38806    602.11073    1121.4988    3153.0618 
   21900          9.5   0.49266996  0.037352771    528.63169     553.5147    1082.1464    3186.3255 
   22000           10    0.5142454  0.078360424    516.19502     577.7547    1093.9497    3221.7143 
   22100         10.5   0.50977047  0.041818457    545.03796    572.72712    1117.7651    3260.9145 
   22200           11   0.51301396 -0.031090605    519.33039    576.37119    1095.7016    3302.8641 
   22300         11.5   0.48505392  0.075936347    506.72496    544.95808     1051.683    3342.4032 
   22400           12   0.48498678 -0.016605446     513.0531    544.88265    1057.9358    3379.9976 
   22500         12.5   0.49735348  0.083155774    509.05217    558.77664    1067.8288    3410.0878 
   22600           13    0.5082696 -0.038461415    529.03813    571.04089     1100.079    3440.6411 
   22700         13.5   0.50102833 -0.0078558835     518.9982    562.90533    1081.9035    3473.1741 
   22800           14   0.50204988  0.080923651    516.20433    564.05304    1080.2574    3502.7073 
   22900         14.5   0.52626547  0.044356564    515.21074    591.25926      1106.47    3536.8198 
   23000           15   0.50486253 -0.013530079    532.33366    567.21306    1099.5467    3571.9199 
   23100         15.5   0.51920099  0.049308176    502.63288    583.32231    1085.9552    3602.1478 
   23200           16   0.50155727 -0.020022862    514.78878    563.49959    1078.2884    3632.4792 
   23300         16.5    0.4810902  0.026074591    536.45458    540.50484    1076.9594    3662.7119 
   23400           17   0.51247827  0.063923128     499.6395    575.76934    1075.4088    3692.7103 
   23500         17.5   0.51297082  0.022398775    534.45044    576.32271    1110.7732    3723.9471 
   23600           18   0.50497058 -0.026198582    508.80491    567.33445    1076.1394    3754.6329 
   23700         18.5   0.50755443  0.071878927    489.78293     570.2374    1060.0203    3785.9582 
   23800           19   0.51120592 0.0088265368    488.37119    574.33985     1062.711    3822.3553 
   23900         19.5   0.49795316  0.023792538     478.6517    559.45038    1038.1021    3856.2926 
   24000           20    0.4784273  0.047111476    483.03779    537.51308    1020.5509    3890.6509 
   24100         20.5   0.50160965  0.041719996    498.01705    563.55844    1061.5755    3927.6011 
   24200           21    0.4877953   0.06211493    498.36997    548.03802     1046.408    3962.5494 
   24300         21.5    0.5108666   0.11590799     491.2428    573.95863    1065.2014    3998.3088 
   24400           22   0.50488015 -0.065797703    528.19238    567.23285    1095.4252    4037.3869 
   24500         22.5   0.50329579   0.01278923    498.69578    565.45282    1064.1486    4067.4268 
   24600           23   0.50365521  0.063607958    508.43426    565.85663    1074.2909    4092.7548 
   24700         23.5   0.50070961  -0.10902528    530.95596    562.54725    1093.5032    4120.2469 
   24800           24   0.50628071 -0.0021377996    538.62571    568.80638    1107.4321    4142.4959 
   24900         24.5   0.51225971  0.060227759    513.45239    575.52378    1088.9762    4171.0465 
   25000           25    0.5076983  0.059266462    502.33946    570.39905    1072.7385    4199.8738 
   25100         25.5   0.46634001  -0.06640126    499.33601      523.933     1023.269    4230.1428 
   25200           26   0.46527485  0.060588142    496.60028    522.73629    1019.3366    4257.1208 
   25300         26.5    0.4780499  0.019425915    504.69199    537.08906    1041.7811    4291.3609 
   25400           27   0.48638083  0.029243452    477.98081    546.44886    1024.4297    4325.5618 
   25500         27.5   0.49548834  0.038487431    517.36068    556.68115    1074.0418    4362.5969 
   25600           28   0.50674972  0.058739885    508.19682    569.33331    1077.5301    4402.8961 
   25700         28.5   0.52384599 -0.012245854    491.43927    588.54098    1079.9802    4449.9178 
   25800           29   0.51013653  0.039869216    501.53187    573.13839    1074.6703    4488.4691 
   25900         29.5    0.5177944  0.076611355    502.93957    581.74201    1084.6816    4526.9652 
   26000           30   0.51067522 -0.030606539    517.04516    573.74361    1090.7888    4568.8019 
   26100         30.5   0.50481816   0.02440192    515.18594     567.1632    1082.3491    4604.9327 
   26200           31   0.48528612   0.03819197    547.03051    545.21895    1092.2495    4642.2532 
   26300         31.5   0.48124482  0.015393009    520.90274    540.67856    1061.5813     4682.894 
   26400           32   0.49292654  0.032469203    512.70573    553.80297    1066.5087    4718.3224 
   26500         32.5   0.51011916  0.028501425    516.82434    573.11887    1089.9432    4760.0796 
   26600           33   0.48438031   0.02614169    498.19255    544.20127    1042.3938    4803.7883 
   26700         33.5   0.50463914   0.11403177    525.44536    566.96208    1092.4074    4848.2997 
   26800           34   0.48402654 -0.0032177863    530.99158    543.80382    1074.7954     4898.568 
   26900         34.5   0.47170948 -0.031348459    534.30902     529.9656    1064.2746    4946.3256 
   27000           35   0.50150957   0.03417351    498.89252      563.446    1062.3385    4987.6491 
   27100         35.5    0.5010122  0.030797017    514.99585     562.8872     1077.883    5024.5538 
   27200           36   0.50745977 -0.025472781    490.14733    570.13105    1060.2784    5061.5932 
   27300         36.5   0.48039915  0.016044327    493.10968    539.72845    1032.8381    5095.7774 
   27400           37    0.5043658  0.048715684    489.89737    566.65498    1056.5523    5129.5765 
   27500         37.5   0.50069612 -0.018734218    494.07663    562.53209    1056.6087    5161.4635 
   27600           38   0.50378807 -0.010190399    523.72375     566.0059    1089.7296    5189.8818 
   27700         38.5   0.49240105 -0.00096747619    534.28911    553.21258    1087.5017    5219.9684 
   27800           39   0.50983252  0.014022554      504.796    572.79683    1077.5928    5248.8635 
   27900         39.5   0.51719088 -0.053778686    520.73275    581.06395    1101.7967    5275.0966 
   28000           40   0.50697093  0.071415951    522.72069    569.58184    1092.3025    5295.3132 
   28100         40.5   0.50532601  -0.00719497    513.11296    567.73377    1080.8467    5322.7813 
   28200           41   0.50737119 -0.018327182    510.44666    570.03153    1080.4782    5350.6211 
   28300         41.5   0.48658889  0.064496288    516.27431    546.68262    1062.9569    5373.3835 
   28400           42   0.49820255 -0.013512846    526.36733    559.73057    1086.0979     5405.776 
   28500         42.5   0.50639685 -0.038600603    532.52905    568.93686    1101.4659    5437.5197 
   28600           43   0.51208649  0.003207112    512.88834    575.32917    1088.2175    5466.3451 
   28700         43.5   0.51187306  0.030710887    510.59388    575.08938    1085.6833    5494.7917 
   28800           44   0.48230622  0.011101074    528.83109    541.87104    1070.7021    5528.2227 
   28900         44.5   0.50736336   0.03679747    493.22095    570.02273    1063.2437    5557.4462 
   29000           45   0.48793663  0.025979543    511.24597    548.19681    1059.4428    5595.7021 
   29100         45.5   0.46642485 -0.019346266    481.76444    524.02832    1005.7928    5631.2976 
   29200           46   0.48257026  0.026768482    493.42407    542.16768    1035.5918    5667.1607 
   29300         46.5   0.49145043  0.045526331    489.87201    552.14456    1042.0166    5712.5976 
   29400           47   0.52376145  0.028478234    499.20037    588.44599    1087.6464    5760.0283 
   29500         47.5   0.50428065 -0.061192069    518.99461    566.55931    1085.5539    5800.3292 
   29600           48   0.49754416  0.075212253    527.95867    558.99086    1086.9495    5831.8811 
   29700         48.5   0.50271015  0.044322549    537.51867    564.79485    1102.3135      5871.52 
   29800           49   0.50472745 -0.049229929    516.12076    567.06129     1083.182    5917.1404 
   29900         49.5   0.49294992  0.037711728    497.99745    553.82924    1051.8267    5946.4979 
   30000           50   0.47403773 0.00094724975    500.64275    532.58139    1033.2241    5981.7084 
   30100         50.5   0.49070768 -0.033161884    476.11742    551.31008    1027.4275     6017.913 
   30200           51   0.47292263  0.054344868    490.53417    531.32857    1021.8627    6051.0257 
   30300         51.5   0.50128503 -0.022160266    506.58316    563.19374    1069.7769    6089.1484 
   30400           52   0.50655043  0.026352958    531.24413    569.10941    1100.3535    6127.2016 
   30500         52.5   0.52531254  0.034955339    531.14754    590.18864    1121.3362     6171.696 
   30600           53   0.50583242  0.022130483    513.06835    568.30272    1081.3711    6215.6348 
   30700         53.5   0.50927533 -0.062050682    487.04369    572.17083    1059.2145    6268.6506 
   30800           54   0.48275871  0.057682183    513.67318    542.37941    1056.0526      6316.81 
   30900         54.5     0.512938  0.028797508    484.94629    576.28584    1061.2321    6375.2007 
   31000           55   0.48840454  -0.03612941    487.73968     548.7225    1036.4622    6431.9362 
   31100         55.5    0.4843962 -0.031304263    479.28602    544.21913    1023.5051    6475.4398 
   31200           56   0.49867564 0.0013977175    451.43034    560.26208    1011.6924    6511.2472 
   31300         56.5   0.50049812 0.0068218088    493.08261    562.30964    1055.3923    6543.7595 
   31400           57   0.48108278   0.01683249    521.25627    540.49651    1061.7528    6577.2449 
   31500         57.5   0.49797891   0.02660959     498.7453    559.47931    1058.2246    6614.9306 
   31600           58   0.47908953 -0.015166279    509.58157    538.25709    1047.8387    6652.4404 
   31700         58.5   0.51220214  0.016894598    496.93476    575.45911    1072.3939    6689.3024 
   31800           59   0.51454944  0.046641545    511.61679     578.0963    1089.7131    6728.1843 
   31900         59.5   0.51401283 -0.060294779    506.39326    577.49342    1083.8867    6775.4738 
   32000           60   0.50888431  0.044510042    520.39092    571.73153    1092.1224    6805.1695 
   32100         60.5   0.50601719 -0.010167162    527.33628    568.51031    1095.8466    6847.1153 
   32200           61   0.51837309 -0.034652609    511.88564    582.39216    1094.2778    6895.1448 
   32300         61.5   0.49343484  0.018742331    552.04657    554.37405    1106.4206    6937.0241 
   32400           62   0.50321201 0.00026378845    521.37062     565.3587    1086.7293    6979.9919 
   32500         62.5   0.50132159  0.025316097    534.11995    563.23481    1097.3548    7015.7886 
   32600           63    0.4925322   0.02626145    522.41115    553.35993    1075.7711    7059.6616 
   32700         63.5   0.51417109 -0.012558075    503.79699    577.67122    1081.4682    7116.0559 
   32800           64    0.4997984  0.027159189    508.62189     561.5235    1070.1454    7163.8529 
   32900         64.5   0.49349578 -0.043917601    497.32915    554.44251    1051.7717    7219.0651 
   33000           65   0.49770482   0.01561345    487.56937    559.17136    1046.7407    7259.3019 
   33100         65.5   0.49712463  0.025896289    501.75078    558.51952    1060.2703    7301.0076 
   33200           66   0.48384414 -0.0081758862    503.93581    543.59889    1047.5347    7344.5061 
   33300         66.5   0.47004706 -0.048018593    509.33083    528.09787    1037.4287    7384.7557 
   33400           67   0.51556577   0.01156554    500.59903    579.23815    1079.8372    7411.7153 
   33500         67.5   0.51600153  0.033901307    527.46958    579.72772    1107.1973    7436.5537 
   33600           68   0.50531702 -0.0049061441    516.31074    567.72367    1084.0344    7470.1546 
   33700         68.5   0.51117805 -0.037462395    509.19545    574.30854     1083.504     7505.154 
   33800           69   0.50960853  0.042600863    495.53286    572.54519     1068.078    7529.0433 
   33900         69.5   0.51569206  0.014621613    524.29513    579.38003    1103.6752    7557.0411 
   34000           70   0.54113254 -0.048441815    487.88075     607.9624    1095.8432    7595.1988 
   34100         70.5   0.54186706  0.066812476    490.41036    608.78765     1099.198    7618.6979 
   34200           71   0.50560941 -0.0026248102    515.50482    568.05218     1083.557    7651.2936 
   34300         71.5   0.51071959 -0.0013195414    513.59764    573.79346    1087.3911    7682.4158 
   34400           72    0.4736053 -0.011549708    522.35357    532.09555    1054.4491    7725.2868 
   34500         72.5   0.47353117 -0.0056497403    447.20692    532.01227     979.2192    7764.6846 
   34600           73   0.49067138  0.021183381     500.1898    551.26929    1051.4591    7788.5585 
   34700         73.5   0.48575998  0.001673695     516.3219    545.75133    1062.0732    7823.6259 
   34800           74   0.49834013  0.016191959    521.78787    559.88513     1081.673    7877.6485 
   34900         74.5   0.50898304 -0.017155514    509.64589    571.84244    1081.4883    7937.0913 
   35000           75   0.50565306  0.022362213    502.86975    568.10122     1070.971    7981.7586 
   35100         75.5   0.50157087 0.0070959945    536.69513    563.51487      1100.21    8026.9564 
   35200           76   0.48696464 0.0057397405    507.07214    547.10477    1054.1769    8081.5867 
   35300         76.5   0.48660094  0.046800359    523.78316    546.69616    1070.4793    8142.8435 
   35400           77   0.50774356 -0.00044208922    504.60643    570.44989    1075.0563    8216.7638 
   35500         77.5   0.51004964 -0.023286237    514.55602    573.04077    1087.5968    8282.9003 
   35600           78   0.53534239    0.0398208    505.43165    601.45718    1106.8888    8348.0168 
   35700         78.5   0.49623596  0.045726859    520.64488     557.5211     1078.166    8425.3732 
   35800           79   0.51744489  0.005645396    518.86953    581.34933    1100.2189    8519.2076 
   35900         79.5   0.52016682 -0.021484091    542.92104    584.40743    1127.3285     8601.076 
   36000           80   0.53212109  0.010396957    518.58191    597.83804      1116.42    8658.0695 
   36100         80.5   0.51455248 -0.014508408    509.87481    578.09971    1087.9745    8710.9501 
   36200           81   0.50379958  0.026338863    495.55285    566.01883    1061.5717    8756.7775 
   36300         81.5   0.51745004 -0.0094658132    502.36601    581.35512    1083.7211    8817.4633 
   36400           82   0.51122841 0.0048854547    492.50883    574.36512    1066.8739    8878.3968 
   36500         82.5   0.50324153  0.020232867    522.38799    565.39186    1087.7798    8932.4125 
   36600           83   0.51496896 -0.00018988785    499.26094    578.56762    1077.8286    8980.2086 
   36700         83.5   0.49099145 -0.014667971    499.44703     551.6289    1051.0759    9018.1559 
   36800           84   0.50144416  0.020891114    517.91319    563.37251    1081.2857    9046.2688 
   36900         84.5   0.52010148 -0.0017001073    500.19321    584.33401    1084.5272    9086.0066 
   37000           85   0.50696509 -0.021641718    514.37678    569.57528    1083.9521    9126.2519 
   37100         85.5   0.52352873  0.018839613    504.46436    588.18453    1092.6489     9165.995 
   37200           86    0.5136036 -0.0058496656    513.04782    577.03364    1090.0815    9210.8322 
   37300         86.5   0.50901147 7.4099443e-05    514.48447    571.87438    1086.3589    9255.3436 
   37400           87   0.48828791 -0.0022192576    516.35278    548.59147    1064.9443    9303.2891 
   37500         87.5    0.5005881 0.00014068618    497.51445    562.41073    1059.9252    9352.4471 
   37600           88   0.49329123 0.0079007747    509.57614    554.21269    1063.7888    9399.2865 
   37700         88.5   0.47690882 -0.0058765471    486.89728    535.80705    1022.7043    9450.0446 
   37800           89   0.47987212 0.0064024432    500.95795    539.13633    1040.0943    9497.5142 
   37900         89.5   0.48063448  0.011415228    527.16859    539.99283    1067.1614    9547.8739 
   38000           90   0.49971589  -0.02876832    521.86291     561.4308    1083.2937    9620.6599 
   38100         90.5   0.49607652  0.055767389    524.02735    557.34197    1081.3693    9695.5474 
   38200           91   0.49493393 -0.023177167    516.89444    556.05827    1072.9527    9777.7755 
   38300         91.5   0.47856886 -0.014530197    512.69841    537.67212    1050.3705    9848.3848 
   38400           92   0.51080889  0.013213696     495.5963    573.89379    1069.4901    9913.5235 
   38500         92.5   0.51734419  0.031432162    499.73354     581.2362    1080.9697    9974.5009 
   38600           93   0.53457319  -0.02774579     498.4299    600.59298    1099.0229    10048.608 
   38700         93.5   0.51588031 0.0014979197    480.56813    579.59153    1060.1597    10099.287 
   38800           94   0.49709038 -0.00029191329    498.18978    558.48104    1056.6708     10153.07 
   38900         94.5   0.48782861  0.014804412    508.63458    548.07545      1056.71    10202.217 
   39000           95   0.48130196  0.040212306    503.12466    540.74275    1043.8674    10256.812 
   39100         95.5   0.48572334 -0.020737342    488.22498    545.71017    1033.9352    10333.624 
   39200           96   0.49720365 0.0036616137    491.71525     558.6083    1050.3236    10389.935 
   39300         96.5   0.50221286  0.012255568     496.6327    564.23615    1060.8688    10437.444 
   39400           97    0.5144804 0.0021512589    502.90305    578.01873    1080.9218    10486.164 
   39500         97.5   0.51087936 -0.0099632821    480.69515    573.97296    1054.6681     10528.74 
   39600           98   0.51191397 0.0043802023    511.23549    575.13535    1086.3708    10564.324 
   39700         98.5   0.52609863 0.0075661193    499.23207    591.07181    1090.3039    10598.172 
   39800           99   0.46958349 -0.015178225    522.00221    527.57705    1049.5793    10620.697 
   39900         99.5   0.49198156 -0.0096220052    506.36888    552.74128    1059.1102    10638.574 
   40000          100    0.5131649  0.014348427    479.74175    576.54076    1056.2825    10678.708 
Loop time of 8.28563 on 1 procs for 20000 steps with 750 atoms

Performance: 1042769.230 tau/day, 2413.818 timesteps/s
84.5% CPU use with 1 MPI tasks x 1 OpenMP threads

MPI task timing breakdown:
Section |  min time  |  avg time  |  max time  |%varavg| %total
---------------------------------------------------------------
Pair    | 0.42518    | 0.42518    | 0.42518    |   0.0 |  5.13
Bond    | 2.2756     | 2.2756     | 2.2756     |   0.0 | 27.46
Neigh   | 0.72328    | 0.72328    | 0.72328    |   0.0 |  8.73
Comm    | 0.29009    | 0.29009    | 0.29009    |   0.0 |  3.50
Output  | 0.91159    | 0.91159    | 0.91159    |   0.0 | 11.00
Modify  | 3.5285     | 3.5285     | 3.5285     |   0.0 | 42.59
Other   |            | 0.1314     |            |       |  1.59

Nlocal:    750 ave 750 max 750 min
Histogram: 1 0 0 0 0 0 0 0 0 0
Nghost:    533 ave 533 max 533 min
Histogram: 1 0 0 0 0 0 0 0 0 0
Neighs:    126 ave 126 max 126 min
Histogram: 1 0 0 0 0 0 0 0 0 0

Total # of neighbors = 126
Ave neighs/atom = 0.168
Ave special neighs/atom = 5.2
Neighbor list builds = 1505
Dangerous builds = 35

unfix 2
unfix 3
fix 4 all nve
fix 5 all langevin ${T} ${T} 1 123456
fix 5 all langevin 0.5 ${T} 1 123456
fix 5 all langevin 0.5 0.5 1 123456
fix recen1 all recenter INIT INIT INIT


# RUN
run ${run_steps}
run 10000
Per MPI rank memory allocation (min/avg/max) = 8.251 | 8.251 | 8.251 Mbytes
Step Time Temp Press PotEng KinEng TotEng Volume 
   40000          100    0.5131649  0.014348427    479.74175    576.54076    1056.2825    10678.708 
   40100        100.5   0.49218498 0.0042731758    534.11836    552.96982    1087.0882    10678.708 
   40200          101   0.49663374 -0.012411558    511.10979    557.96801    1069.0778    10678.708 
   40300        101.5   0.49297112  0.025311902    511.49682    553.85305    1065.3499    10678.708 
   40400          102   0.50166592  0.016951215    511.54725    563.62166    1075.1689    10678.708 
   40500        102.5   0.47684868 -0.016244492    518.56796    535.73949    1054.3074    10678.708 
   40600          103   0.51930606  0.007212372    504.99962    583.44035      1088.44    10678.708 
   40700        103.5    0.5113986 -0.0055196813    500.78827    574.55633    1075.3446    10678.708 
   40800          104   0.51156161  0.022001946    514.19878    574.73946    1088.9382    10678.708 
   40900        104.5   0.51165074  -0.04038333     505.9678    574.83961    1080.8074    10678.708 
   41000          105   0.50157653 0.0088183834    504.87359    563.52124    1068.3948    10678.708 
   41100        105.5      0.51574  0.041620473    516.81948    579.43389    1096.2534    10678.708 
   41200          106   0.48676871  -0.03760009    554.97579    546.88464    1101.8604    10678.708 
   41300        106.5   0.52617435 -0.010979483    521.28017    591.15688     1112.437    10678.708 
   41400          107   0.52253101  0.034222478    506.85756    587.06359    1093.9212    10678.708 
   41500        107.5   0.51091638 -0.027637028    505.00288    574.01455    1079.0174    10678.708 
   41600          108   0.50563505  0.022689983    498.17074    568.08098    1066.2517    10678.708 
   41700        108.5   0.50137075  0.038462771    489.60309    563.29004    1052.8931    10678.708 
   41800          109    0.4797696 -0.034455102    501.26412    539.02114    1040.2853    10678.708 
   41900        109.5   0.49835842 0.0069146392    489.17581    559.90568    1049.0815    10678.708 
   42000          110   0.49467527  0.020358035    512.52109    555.76766    1068.2888    10678.708 
   42100        110.5   0.50813099 -0.011316596    515.36371    570.88517    1086.2489    10678.708 
   42200          111    0.5067169  0.023308128    532.98443    569.29644    1102.2809    10678.708 
   42300        111.5   0.50920979  0.016774669    486.52005     572.0972    1058.6173    10678.708 
   42400          112   0.49346762 -0.0065996568    491.31706    554.41087    1045.7279    10678.708 
   42500        112.5   0.47698003  0.025191409    494.95856    535.88706    1030.8456    10678.708 
   42600          113   0.47990253 -0.015384399     510.5879    539.17049    1049.7584    10678.708 
   42700        113.5   0.48368687  0.020358166    513.90951    543.42219    1057.3317    10678.708 
   42800          114   0.50799165 0.0058759121    490.52835    570.72862     1061.257    10678.708 
   42900        114.5   0.49770696  0.024003603    484.48881    559.17377    1043.6626    10678.708 
   43000          115   0.51911392 -0.0045449253    479.29229    583.22448    1062.5168    10678.708 
   43100        115.5   0.49320572  0.016910899    502.33483    554.11663    1056.4515    10678.708 
   43200          116   0.50194172  0.037668061    486.64112    563.93153    1050.5726    10678.708 
   43300        116.5   0.49346851 -0.011339531     506.3308    554.41188    1060.7427    10678.708 
   43400          117   0.52806295  0.016792868    475.39616    593.27873    1068.6749    10678.708 
   43500        117.5   0.48256014  0.018225304    513.46213    542.15632    1055.6185    10678.708 
   43600          118   0.50045609 -0.015772271    495.67175    562.26242    1057.9342    10678.708 
   43700        118.5   0.50468896  0.029642014    505.53951    567.01804    1072.5576    10678.708 
   43800          119    0.5004351 -0.0076515298    522.92168    562.23883    1085.1605    10678.708 
   43900        119.5   0.49355266 0.0074111587    512.68574    554.50641    1067.1922    10678.708 
   44000          120   0.49196931   0.04480095    535.91837    552.72752    1088.6459    10678.708 
   44100        120.5   0.51824074 -0.0018791251    516.83377    582.24347    1099.0772    10678.708 
   44200          121   0.51097896   0.01008415    529.22653    574.08486    1103.3114    10678.708 
   44300        121.5   0.53115896  0.014281685     522.2295    596.75709    1118.9866    10678.708 
   44400          122    0.5092104 -0.00047931636    521.73214    572.09788      1093.83    10678.708 
   44500        122.5   0.50883294  0.021260198    505.84105    571.67381    1077.5149    10678.708 
   44600          123   0.47998679 -0.014390085    519.50708    539.26515    1058.7722    10678.708 
   44700        123.5   0.48704041 -0.0092751399     511.9696     547.1899    1059.1595    10678.708 
   44800          124   0.52646065  0.026518597    507.19836    591.47854    1098.6769    10678.708 
   44900        124.5   0.49847083 -0.015546471    502.08733    560.03198    1062.1193    10678.708 
   45000          125   0.48213996  0.033562031    523.14217    541.68424    1064.8264    10678.708 
   45100        125.5   0.48060497 -0.021928938    504.00663    539.95969    1043.9663    10678.708 
   45200          126   0.50695887 -0.027781702    495.80656    569.56829    1065.3748    10678.708 
   45300        126.5   0.50140871  0.049431005    513.86917    563.33268    1077.2018    10678.708 
   45400          127    0.5023891 -0.0047248339    500.41293    564.43415    1064.8471    10678.708 
   45500        127.5   0.49471058 -0.007885924    504.75785    555.80734    1060.5652    10678.708 
   45600          128   0.51052074 -0.0069709292    488.83255    573.57005    1062.4026    10678.708 
   45700        128.5   0.50062657  0.015633571    497.79801    562.45395     1060.252    10678.708 
   45800          129   0.51730855 -0.0042737351    501.29805    581.19616    1082.4942    10678.708 
   45900        129.5   0.49844139  0.022900686    493.06136     559.9989    1053.0603    10678.708 
   46000          130   0.49472993  0.022654315    505.07816    555.82907    1060.9072    10678.708 
   46100        130.5   0.49892445 0.0028496185    494.42125    560.54161    1054.9629    10678.708 
   46200          131   0.50732719 -9.2043882e-05    496.20925     569.9821    1066.1913    10678.708 
   46300        131.5   0.53460342   0.02991135    499.00196    600.62694    1099.6289    10678.708 
   46400          132   0.48109837 -0.014634407     532.4504    540.51402    1072.9644    10678.708 
   46500        132.5   0.52952742  0.013600188    501.43925    594.92406    1096.3633    10678.708 
   46600          133   0.52943216   0.01266606    529.12443    594.81703    1123.9415    10678.708 
   46700        133.5   0.48618775 -0.010369508    531.85139    546.23194    1078.0833    10678.708 
   46800          134   0.50481825  0.030196757    484.74546     567.1633    1051.9088    10678.708 
   46900        134.5   0.47318682 0.0058076322    510.24686    531.62539    1041.8722    10678.708 
   47000          135   0.46695979 -0.012883141    507.25228    524.62932    1031.8816    10678.708 
   47100        135.5   0.46820134 0.0025298983    495.54843    526.02421    1021.5726    10678.708 
   47200          136   0.50039958  0.042960098    483.88603    562.19893     1046.085    10678.708 
   47300        136.5   0.51465859 -0.016771948    485.18636    578.21893    1063.4053    10678.708 
   47400          137   0.49873242  0.007524122    484.46895    560.32588    1044.7948    10678.708 
   47500        137.5   0.48969444 -0.0065196629    490.68829    550.17171      1040.86    10678.708 
   47600          138   0.46811986 -0.00057881584    488.01793    525.93267    1013.9506    10678.708 
   47700        138.5   0.49989014  0.026948602    465.23723    561.62657    1026.8638    10678.708 
   47800          139   0.47735406 -0.019548019    462.35622    536.30729    998.66351    10678.708 
   47900        139.5   0.50189407  0.017409979     467.0673    563.87799    1030.9453    10678.708 
   48000          140   0.47524358 -0.0085510735    511.61437    533.93616    1045.5505    10678.708 
   48100        140.5    0.4928062 0.0056793268    500.22422    553.66777     1053.892    10678.708 
   48200          141   0.48867275  0.034793661    512.82377    549.02383    1061.8476    10678.708 
   48300        141.5    0.5089929 -0.041523361    485.54315    571.85353    1057.3967    10678.708 
   48400          142   0.49581782 0.0065194255    506.17083    557.05132    1063.2222    10678.708 
   48500        142.5   0.50240798 0.0048415201    497.35187    564.45537    1061.8072    10678.708 
   48600          143   0.50849488 -0.00085492674    480.85011      571.294    1052.1441    10678.708 
   48700        143.5   0.48672279 -0.0074097556     489.9793    546.83306    1036.8124    10678.708 
   48800          144   0.48570794 0.00077295172    478.97149    545.69288    1024.6644    10678.708 
   48900        144.5   0.48934657 -0.0057734334    510.58448    549.78087    1060.3654    10678.708 
   49000          145   0.50978299 -0.0064294397     497.8285    572.74119    1070.5697    10678.708 
   49100        145.5   0.50032388  0.023892158    509.24833    562.11388    1071.3622    10678.708 
   49200          146   0.50627223  0.010646577    509.77732    568.79685    1078.5742    10678.708 
   49300        146.5    0.4940209 -0.043881032    507.83178    555.03248    1062.8643    10678.708 
   49400          147   0.47982897  0.035256571    499.41974    539.08785    1038.5076    10678.708 
   49500        147.5   0.48868559 0.0095203594    481.39874    549.03826     1030.437    10678.708 
   49600          148   0.52224644 0.0077856346    485.81317    586.74387     1072.557    10678.708 
   49700        148.5   0.51134189  0.023411712    509.64508    574.49262    1084.1377    10678.708 
   49800          149   0.50029091 -0.0098559554    527.91366    562.07684    1089.9905    10678.708 
   49900        149.5   0.50629765 -0.0098926194    508.07522    568.82541    1076.9006    10678.708 
   50000          150    0.5150459  0.058331896    516.05662    578.65407    1094.7107    10678.708 
Loop time of 2.78194 on 1 procs for 10000 steps with 750 atoms

Performance: 1552871.454 tau/day, 3594.610 timesteps/s
78.6% CPU use with 1 MPI tasks x 1 OpenMP threads

MPI task timing breakdown:
Section |  min time  |  avg time  |  max time  |%varavg| %total
---------------------------------------------------------------
Pair    | 0.077984   | 0.077984   | 0.077984   |   0.0 |  2.80
Bond    | 0.78454    | 0.78454    | 0.78454    |   0.0 | 28.20
Neigh   | 0.34362    | 0.34362    | 0.34362    |   0.0 | 12.35
Comm    | 0.13059    | 0.13059    | 0.13059    |   0.0 |  4.69
Output  | 0.51584    | 0.51584    | 0.51584    |   0.0 | 18.54
Modify  | 0.84315    | 0.84315    | 0.84315    |   0.0 | 30.31
Other   |            | 0.08623    |            |       |  3.10

Nlocal:    750 ave 750 max 750 min
Histogram: 1 0 0 0 0 0 0 0 0 0
Nghost:    469 ave 469 max 469 min
Histogram: 1 0 0 0 0 0 0 0 0 0
Neighs:    83 ave 83 max 83 min
Histogram: 1 0 0 0 0 0 0 0 0 0

Total # of neighbors = 83
Ave neighs/atom = 0.110667
Ave special neighs/atom = 5.2
Neighbor list builds = 693
Dangerous builds = 9
write_restart restart.time*

#This section  of codes allows looping over the list of T values
clear
OMP_NUM_THREADS environment is not set. Defaulting to 1 thread. (../comm.cpp:94)
  using 1 OpenMP thread(s) per MPI task
next mix_steps
jump in.run_loop loop  #jumps back to loop label
read_restart restart.time*
  restoring atom style molecular from restart
  orthogonal box = (-3.48268 -18.3054 -3.48268) to (9.18268 48.2654 9.18268)
  1 by 1 by 1 MPI processor grid
  restoring pair style lj/cut from restart
  restoring bond style harmonic from restart
  restoring angle style harmonic from restart
  750 atoms
  700 bonds
  650 angles
  2 = max # of 1-2 neighbors
  2 = max # of 1-3 neighbors
  4 = max # of 1-4 neighbors
  6 = max # of special neighbors
  special bonds CPU = 0.014961 secs
  read_restart CPU = 0.045871 secs
# this reads in latest restart file, * is wildcard for timestep


# THERMAL
timestep ${t_step}
timestep 0.005
thermo   100
thermo_style custom step time temp press pe ke etotal vol
thermo_modify norm no


# DUMP OUTPUT
dump  1  all custom 5000 output_T_${T}_time_*.dump id mol type x y z vx vy vz
dump  1  all custom 5000 output_T_0.5_time_*.dump id mol type x y z vx vy vz
# dumps all positions etc every N  steps
dump_modify 1 sort id

# FIX
fix 2 all nph iso 0.0000001 0.0000001 10   #reduced target pressure here
fix 3 all langevin ${T} ${T} 1 123456 #as above
fix 3 all langevin 0.5 ${T} 1 123456 
fix 3 all langevin 0.5 0.5 1 123456 
run ${mix_steps}
run 30000
Neighbor list info ...
  update every 1 steps, delay 10 steps, check yes
  max neighbors/atom: 2000, page size: 100000
  master list distance cutoff = 1.42
  ghost atom cutoff = 1.9
  binsize = 0.71, bins = 18 94 18
  1 neighbor lists, perpetual/occasional/extra = 1 0 0
  (1) pair lj/cut, perpetual
      attributes: half, newton on
      pair build: half/bin/newton
      stencil: half/bin/3d/newton
      bin: standard
Per MPI rank memory allocation (min/avg/max) = 8.207 | 8.207 | 8.207 Mbytes
Step Time Temp Press PotEng KinEng TotEng Volume 
   50000            0    0.5150459  0.058331896    516.05662    578.65407    1094.7107    10678.708 
   50100          0.5   0.50752082 0.0095950036    495.70581    570.19964    1065.9055    10689.373 
   50200            1    0.5195089 -0.016522854    504.10663    583.66825    1087.7749    10710.578 
   50300          1.5   0.52034895  0.023971189    512.41312    584.61205    1097.0252    10724.518 
   50400            2   0.50866589 -0.027848655    515.77286    571.48613     1087.259    10749.989 
   50500          2.5   0.50619112 -0.0061474529    518.31008    568.70573    1087.0158    10768.559 
   50600            3   0.48610871 0.0085801537    522.65486    546.14314     1068.798    10788.093 
   50700          3.5   0.49863013 -0.0072697462      470.598    560.21095     1030.809    10826.585 
   50800            4   0.50434404  0.016757215    504.21538    566.63053    1070.8459    10860.618 
   50900          4.5   0.49543134 0.0086357026    524.06298    556.61711    1080.6801     10911.89 
   51000            5   0.50058101 -0.0018043789     486.1636    562.40276    1048.5664    10968.649 
   51100          5.5   0.47476652 -0.0050278118    536.55463    533.40019    1069.9548    11031.822 
   51200            6   0.48048413 -0.014168201    505.99499    539.82392    1045.8189     11104.92 
   51300          6.5   0.51191622 0.0047358024    499.10717    575.13787     1074.245    11180.447 
   51400            7   0.49362627  0.036292574    491.21941    554.58911    1045.8085    11251.781 
   51500          7.5   0.47749058 -0.034805599    502.84887    536.46067    1039.3095    11332.148 
   51600            8   0.51827273  0.007578524    487.45937    582.27941    1069.7388    11399.067 
   51700          8.5   0.47121491  0.013252498    523.42744    529.40995    1052.8374    11472.977 
   51800            9   0.49026948 -0.014630468    494.84497    550.81776    1045.6627    11549.008 
   51900          9.5   0.51031035 0.0098549605    473.55089    573.33368    1046.8846    11627.465 
   52000           10   0.50577455  0.028728989    512.47136     568.2377    1080.7091    11721.779 
   52100         10.5   0.49228956  0.017255024     521.1573    553.08732    1074.2446    11829.466 
   52200           11   0.52013227 -0.011568997     520.5268     584.3686    1104.8954    11932.626 
   52300         11.5   0.52119475  0.016441007    485.73313    585.56231    1071.2954    12027.829 
   52400           12   0.51551638 -0.002969188    514.05595    579.18266    1093.2386     12130.03 
   52500         12.5     0.503179 -0.0055569315    521.33697    565.32161    1086.6586    12214.668 
   52600           13   0.50939726  0.010948938    526.79638    572.30783    1099.1042    12281.035 
   52700         13.5   0.50493233  0.010475497    499.77511    567.29148    1067.0666    12348.486 
   52800           14   0.49957877 -0.024109372    520.06222    561.27675     1081.339    12423.968 
   52900         14.5   0.51027261  0.019542417    479.57747    573.29128    1052.8687    12479.316 
   53000           15   0.49175603 -0.0023331653    474.24039     552.4879    1026.7283     12554.49 
   53100         15.5   0.50524354 0.0063252458    465.14415    567.64112    1032.7853    12638.334 
   53200           16   0.49720185  0.017600881    481.64827    558.60628    1040.2545    12725.223 
   53300         16.5   0.51295028   0.01702429    488.04954    576.29964    1064.3492    12802.098 
   53400           17   0.47834274 -0.015825817    491.97694    537.41806     1029.395     12885.22 
   53500         17.5    0.5088644 0.0099165072    460.28812    571.70915    1031.9973    12960.342 
   53600           18   0.49025004  0.008414141    476.29968    550.79592    1027.0956    13049.547 
   53700         18.5   0.47353799 -0.014514263    495.82522    532.01993    1027.8452    13164.501 
   53800           19   0.49996137  0.018948661    481.69322     561.7066    1043.3998    13268.794 
   53900         19.5   0.48773749 0.0078613443    500.58588    547.97307    1048.5589     13373.46 
   54000           20   0.47827643 0.0067530585    516.59047    537.34357     1053.934    13483.581 
   54100         20.5   0.51042521 -0.011406234    510.69835    573.46273    1084.1611    13607.056 
   54200           21     0.512147 -0.0079540151    531.50159    575.39716    1106.8987    13723.689 
   54300         21.5   0.51778415 0.0036236468    510.23621    581.73049    1091.9667     13819.59 
   54400           22   0.50298714 -0.0099631593    522.24189    565.10606    1087.3479     13926.59 
   54500         22.5   0.50644868 0.0077420446    503.42989    568.99509     1072.425    14030.924 
   54600           23    0.5007799 -0.0014391718     507.8782    562.62622    1070.5044    14137.959 
   54700         23.5   0.49384668 0.0099419712    510.67392    554.83675    1065.5107     14239.24 
   54800           24   0.52350969 -0.0090292472    493.80939    588.16314    1081.9725    14351.639 
   54900         24.5   0.50669151  0.013565898    532.45901    569.26791    1101.7269     14422.61 
   55000           25    0.5199042 -0.020095625    500.95479    584.11236    1085.0672    14510.465 
   55100         25.5   0.50592672  0.016808192     495.6447    568.40867    1064.0534    14598.178 
   55200           26   0.50253335 0.0040730546    509.72708    564.59622    1074.3233    14679.721 
   55300         26.5   0.48018373  -0.02706732    501.47207    539.48643    1040.9585    14756.965 
   55400           27   0.47918958  0.015117642    514.63869    538.36949    1053.0082    14818.726 
   55500         27.5   0.50865148 -0.0022919581    510.09175    571.46994    1081.5617    14905.884 
   55600           28   0.50290531 -0.0050150763    517.42261    565.01412    1082.4367    14979.238 
   55700         28.5   0.50224202 0.0093112018    492.02302    564.26891    1056.2919    15042.136 
   55800           29   0.49784231 -0.0069514098    464.63369    559.32584    1023.9595     15102.82 
   55900         29.5   0.51127293 0.0039728061    498.66611    574.41514    1073.0812    15168.719 
   56000           30   0.50316184 -0.00035955389    498.59427    565.30233    1063.8966    15249.995 
   56100         30.5   0.52707179 0.0059921299    527.20498    592.16516    1119.3701    15309.272 
   56200           31   0.53202332 -0.022861087    518.62249     597.7282    1116.3507    15368.185 
   56300         31.5     0.506726  0.018643529     484.8326    569.30666    1054.1393    15393.405 
   56400           32   0.47735976 -0.0063612778    530.24374    536.31368    1066.5574    15433.531 
   56500         32.5   0.51327708 -0.0049882557    520.66216     576.6668     1097.329    15468.377 
   56600           33   0.47920643  0.013010995    495.77378    538.38843    1034.1622    15512.952 
   56700         33.5   0.48259602 -0.014514022    487.40929    542.19662    1029.6059    15564.027 
   56800           34   0.49474626 0.00011944509    508.93522    555.84743    1064.7826    15610.798 
   56900         34.5   0.49473025 0.0071428165    507.06263    555.82944    1062.8921    15643.234 
   57000           35   0.51332154   0.01270501    486.80948    576.71675    1063.5262    15677.534 
   57100         35.5   0.53771339  0.012247099    470.06315    604.12099    1074.1841    15732.973 
   57200           36   0.51865224 -0.014553201     472.5826    582.70579    1055.2884    15810.065 
   57300         36.5   0.50422644  0.008279047    530.31522    566.49841    1096.8136    15874.943 
   57400           37    0.5019634 -0.004797567    515.81303    563.95587    1079.7689    15969.626 
   57500         37.5    0.4940287  0.011722523    522.84884    555.04125    1077.8901    16062.318 
   57600           38   0.53563113 -0.020119273    539.03354    601.78157    1140.8151    16161.964 
   57700         38.5   0.51966322 -0.016034579    500.36542    583.84162     1084.207    16260.166 
   57800           39   0.51908976   0.02266116    504.80912    583.19735    1088.0065    16336.327 
   57900         39.5   0.49413462 -0.018249257    536.68421    555.16025    1091.8445    16429.381 
   58000           40   0.53390196 0.0062850969    528.14015    599.83885     1127.979    16504.369 
   58100         40.5   0.50443609  0.021771733    530.91337    566.73394    1097.6473    16585.286 
   58200           41   0.52547949 -0.007704698    513.94649    590.37621    1104.3227    16656.034 
   58300         41.5   0.49884163 -0.011574935    527.24716    560.44857    1087.6957     16697.28 
   58400           42    0.5023186  0.013903613    502.21325    564.35495    1066.5682    16729.272 
   58500         42.5   0.50676071   -0.0149581    471.38774    569.34566    1040.7334    16800.183 
   58600           43   0.51367069 0.0085419687    482.81775    577.10902    1059.9268    16855.821 
   58700         43.5   0.51372534 0.0060887774    508.19208    577.17042    1085.3625    16933.594 
   58800           44    0.5012665  0.016470836    491.52375    563.17291    1054.6967    17019.384 
   58900         44.5   0.51978375 -0.00040964914    499.83231    583.97704    1083.8094    17132.208 
   59000           45   0.52072988 0.0090539654    495.61108    585.04003    1080.6511    17224.261 
   59100         45.5   0.49842133 0.0049965938    500.59788    559.97636    1060.5742    17318.395 
   59200           46   0.48546237 -0.003341293    516.99977    545.41697    1062.4167    17417.029 
   59300         46.5   0.49925635 -0.0073059767    488.36465    560.91451    1049.2792    17513.209 
   59400           47   0.49921868 0.0064619233    475.94182    560.87218     1036.814    17598.726 
   59500         47.5   0.49461864 -0.016000273    463.96866    555.70404    1019.6727     17676.19 
   59600           48   0.48675186 0.00027084486    476.65829    546.86572     1023.524    17757.067 
   59700         48.5   0.49281994 -0.0032528453    468.57104     553.6832    1022.2542    17856.294 
   59800           49   0.48557182 0.00088476595    488.45102    545.53994     1033.991    17956.426 
   59900         49.5   0.50785896  0.018520368    516.93023    570.57955    1087.5098    18050.934 
   60000           50   0.50839404 -0.014697455     512.6895    571.18071    1083.8702    18151.105 
   60100         50.5   0.50154816 -0.010354532    554.38224    563.48936    1117.8716    18233.157 
   60200           51   0.54072591  0.017449386    483.96694    607.50556    1091.4725    18303.675 
   60300         51.5   0.48332542 0.0076273756    532.08184    543.01611     1075.098    18380.486 
   60400           52   0.49796348 -0.018849286    484.11435    559.46197    1043.5763    18482.906 
   60500         52.5   0.48782565 0.0076283816    499.73288    548.07212     1047.805    18567.593 
   60600           53   0.49710226 0.0046199959    522.66147    558.49439    1081.1559    18644.541 
   60700         53.5   0.49179336 -0.0018260374    514.51483    552.52984    1067.0447    18729.609 
   60800           54   0.49221953 0.0087374812    499.70755    553.00864    1052.7162    18833.877 
   60900         54.5   0.50572858 0.0097563314     484.5654    568.18606    1052.7515    18948.543 
   61000           55   0.48740607 -0.012064063    494.88852    547.60072    1042.4892    19050.676 
   61100         55.5   0.48445168  0.010693163    506.44162    544.28146    1050.7231    19136.898 
   61200           56   0.47530007 -0.0067347396    511.30891    533.99963    1045.3085    19212.244 
   61300         56.5   0.49040326 -0.018732302    477.20854    550.96807    1028.1766    19285.474 
   61400           57   0.51078119  0.017443524    495.04111    573.86267    1068.9038    19347.396 
   61500         57.5   0.49622811 -0.0045437494    510.18827    557.51228    1067.7006    19435.713 
   61600           58   0.48109325 -0.021805049     509.9516    540.50827    1050.4599    19512.338 
   61700         58.5   0.49033197   0.01256457    512.78656    550.88797    1063.6745    19576.215 
   61800           59    0.4777484 0.0068569289    519.83519    536.75032    1056.5855    19660.097 
   61900         59.5   0.50886692 -0.0062561122    505.29066    571.71198    1077.0026    19743.945 
   62000           60   0.49329111 0.0095393064    494.39164    554.21256    1048.6042    19824.092 
   62100         60.5   0.51373792  0.001511598    466.92189    577.18455    1044.1064    19905.464 
   62200           61   0.49467961 0.0045185023    508.41394    555.77254    1064.1865    19973.588 
   62300         61.5    0.4870809 -0.0037512512    511.78779    547.23539    1059.0232    20073.008 
   62400           62   0.49532143 -0.001099484    504.22894    556.49363    1060.7226    20167.826 
   62500         62.5    0.4884069 -0.0010995029    504.26969    548.72515    1052.9948    20231.541 
   62600           63   0.49226429 0.0070054512    482.87255    553.05893    1035.9315    20284.911 
   62700         63.5   0.49061984 -0.0084093431    490.22259    551.21139     1041.434    20322.621 
   62800           64   0.49079825 -0.0081639982    484.42768    551.41183    1035.8395     20365.38 
   62900         64.5   0.49060996 0.0070480459    501.66823    551.20029    1052.8685    20404.809 
   63000           65   0.49049215 0.0061169851    493.31328    551.06793    1044.3812    20473.162 
   63100         65.5   0.50767311 -0.0081286891    488.30662    570.37074    1058.6774    20554.581 
   63200           66   0.51212943 -0.00076192337    476.90892    575.37741    1052.2863    20631.715 
   63300         66.5   0.49791675 0.0050917279     501.8643    559.40946    1061.2738      20682.1 
   63400           67   0.52269265 0.0058110302    483.73793    587.24519    1070.9831    20743.491 
   63500         67.5   0.51306098 0.00079184144    501.78486    576.42401    1078.2089    20819.936 
   63600           68   0.48652521 0.0032132529    516.28255    546.61107    1062.8936    20901.854 
   63700         68.5   0.48181339 -0.0030622766    491.28393    541.31735    1032.6013    20995.254 
   63800           69   0.48362189 0.0028516676    493.88998    543.34919    1037.2392    21086.211 
   63900         69.5   0.49862864 0.0037464282    519.28231    560.20928    1079.4916    21193.268 
   64000           70   0.52526001 0.0059679962    492.38615    590.12962    1082.5158    21320.515 
   64100         70.5   0.50368579 -0.0092799079    495.79434    565.89098    1061.6853     21439.09 
   64200           71   0.48631399 0.0017284705    497.24596    546.37376    1043.6197     21526.85 
   64300         71.5   0.48155429  0.010073882    512.65929    541.02624    1053.6855    21633.155 
   64400           72   0.50616908 0.0017119199     494.7457    568.68096    1063.4267    21756.089 
   64500         72.5   0.48666183 0.0050455043    504.98015    546.76456    1051.7447    21876.361 
   64600           73   0.49501238 0.0049678395    504.74085    556.14641    1060.8873    21976.461 
   64700         73.5   0.49507873 9.6559239e-05    500.46398    556.22095    1056.6849    22054.829 
   64800           74   0.48457771 9.9896195e-05    499.15978    544.42305    1043.5828    22145.554 
   64900         74.5   0.47919284 0.0038942727    480.58778    538.37316    1018.9609    22241.663 
   65000           75   0.46982717 -0.0016669121    510.44627    527.85083    1038.2971    22330.534 
   65100         75.5   0.50340043 -0.012302411      486.333    565.57039    1051.9034    22442.842 
   65200           76   0.48842511  0.020365772    488.45576    548.74561    1037.2014    22525.036 
   65300         76.5   0.47568919 -0.0015478181    522.08182    534.43681    1056.5186    22632.329 
   65400           77   0.48363855  -0.01546112     523.5626    543.36791    1066.9305    22748.769 
   65500         77.5   0.50539004  0.008892323    506.26253    567.80571    1074.0682    22863.898 
   65600           78   0.51038203 0.0041782162    495.46941    573.41421    1068.8836    23029.568 
   65700         78.5   0.49605413 -0.0056066117    498.79309    557.31682    1056.1099    23196.468 
   65800           79   0.46586288 0.0090572169    499.87094    523.39695    1023.2679      23354.1 
   65900         79.5   0.49544001 0.0025259852    504.20422    556.62685    1060.8311    23538.999 
   66000           80   0.49470679 0.0093220624    481.61152    555.80308    1037.4146    23708.471 
   66100         80.5   0.49953399 0.0039655217    516.36917    561.22644    1077.5956    23888.284 
   66200           81   0.49518824 -0.0028649546    508.40106    556.34399     1064.745    24058.939 
   66300         81.5   0.49004706 0.0034099749      483.706    550.56787    1034.2739    24201.288 
   66400           82   0.48077329 -0.0052885135    497.12942    540.14879    1037.2782    24346.731 
   66500         82.5   0.49227184 -0.0044972862    480.50816    553.06741    1033.5756    24465.999 
[...]
  303500        467.5    0.4985649 9.0736653e-07     495.9287    560.13767    1056.0664     35308820 
  303600          468   0.49975626 -7.0296142e-07    509.64426    561.47616    1071.1204     35365503 
  303700        468.5   0.47269104 -6.549306e-07    514.11016    531.06838    1045.1785     35423097 
  303800          469   0.49471584 6.1746666e-06    474.17188    555.81325    1029.9851     35432946 
  303900        469.5   0.52869092 -2.3956784e-06    475.37065    593.98425    1069.3549     35458393 
  304000          470   0.51443963 5.4788755e-06    488.75284    577.97292    1066.7258     35443571 
  304100        470.5   0.48598313 -4.1135998e-07    516.85375    546.00205    1062.8558     35458853 
  304200          471   0.52665585 3.2815141e-07     498.4852    591.69784     1090.183     35470009 
  304300        471.5   0.52199141 -1.2369776e-06    506.21529    586.45735    1092.6726     35550013 
  304400          472   0.49992425 -1.7780606e-06    495.41171     561.6649    1057.0766     35653395 
  304500        472.5   0.48581218 6.952119e-06    493.35022    545.80998    1039.1602     35747029 
  304600          473   0.49835859 -6.6001118e-06    476.91856    559.90588    1036.8244     35839516 
  304700        473.5   0.49311794 3.4189036e-06    507.00698      554.018     1061.025     35904669 
  304800          474   0.48796499 4.4379599e-06    497.94132    548.22866      1046.17     36024201 
  304900        474.5   0.48125196 -4.9532848e-06    492.77497    540.68658    1033.4615     36130587 
  305000          475   0.48535357 -8.2140062e-07    500.69301    545.29473    1045.9877     36228415 
  305100        475.5   0.49679109 2.5360483e-06    494.67281    558.14479    1052.8176     36369296 
  305200          476   0.52437695 2.6620126e-07    492.26358     589.1375    1081.4011     36533414 
  305300        476.5   0.50508859 6.1789978e-06    511.11903    567.46703    1078.5861     36645062 
  305400          477   0.51663025 -3.7265339e-06    502.00517    580.43408    1082.4393     36770986 
  305500        477.5   0.49862709 -1.6699102e-06    522.89607    560.20754    1083.1036     36893271 
  305600          478   0.51067818 8.9880403e-06    491.80498    573.74694    1065.5519     37008143 
  305700        478.5   0.47547666 -5.9123946e-06    511.11366    534.19803    1045.3117     37134486 
  305800          479   0.49401829 -3.2744976e-06    516.94979    555.02954    1071.9793     37204041 
  305900        479.5   0.50330419 2.5971783e-06    525.81931    565.46226    1091.2816     37258332 
  306000          480   0.54263097 -1.5748332e-07    511.50159    609.64589    1121.1475     37338386 
  306100        480.5   0.51734589 1.6783411e-06    530.94679    581.23811    1112.1849     37431300 
  306200          481   0.51106861 1.951417e-06    514.38488    574.18558    1088.5705     37550796 
  306300        481.5   0.51425462 -2.0814906e-06     501.6527    577.76506    1079.4178     37642049 
  306400          482   0.49288717 -4.3091389e-07    471.77565    553.75874    1025.5344     37763104 
  306500        482.5   0.49805777 6.0573101e-06    513.76912     559.5679     1073.337     37854497 
  306600          483   0.50240237 -1.011059e-05     522.0956    564.44907    1086.5447     37976705 
  306700        483.5   0.52126877 4.1934751e-06    513.51796    585.64546    1099.1634     38004292 
  306800          484    0.5073695 2.3367304e-07    517.84562    570.02963    1087.8752     38063733 
  306900        484.5    0.5242025 -4.921837e-06    507.05457    588.94151    1095.9961     38135611 
  307000          485   0.50845006 3.1356625e-06    533.17883    571.24364    1104.4225     38216807 
  307100        485.5   0.49191482 9.1965978e-06    531.10351     552.6663    1083.7698     38275868 
  307200          486   0.51291837 -7.9521374e-06    508.80168    576.26379    1085.0655     38366353 
  307300        486.5   0.51491999 -3.0764583e-06    526.73395     578.5126    1105.2466     38406506 
  307400          487   0.49182046 1.7365401e-06    515.77067    552.56028    1068.3309     38456889 
  307500        487.5   0.51704016 1.8722396e-06    505.13325    580.89463    1086.0279     38476851 
  307600          488   0.50000399 -1.372902e-06    487.57479    561.75449    1049.3293     38483147 
  307700        488.5   0.51136934 8.5349373e-06    467.69545    574.52345    1042.2189     38507779 
  307800          489   0.49541045 -3.24168e-06    505.03411    556.59364    1061.6278     38624430 
  307900        489.5   0.51878155 3.2155651e-06    487.39392    582.85107     1070.245     38681358 
  308000          490   0.48173663 -5.0984729e-06    503.10926    541.23111    1044.3404     38763738 
  308100        490.5   0.52169971 2.489618e-06    496.50814    586.12962    1082.6378     38821086 
  308200          491    0.4885905 4.5667559e-06    526.98655    548.93143     1075.918     38860841 
  308300        491.5   0.51048976 1.1247301e-06    484.94771    573.53525     1058.483     38915898 
  308400          492   0.48161296 2.0150453e-06    510.73552    541.09216    1051.8277     38957297 
  308500        492.5   0.51326099 3.8287837e-06     492.3311    576.64872    1068.9798     39005480 
  308600          493   0.47629672 -6.6947075e-06    497.61949    535.11937    1032.7389     39082105 
  308700        493.5   0.45897083 4.8920194e-06    513.70059    515.65373    1029.3543     39121859 
  308800          494   0.48212741 2.2682783e-06     515.2395    541.67015    1056.9097     39230876 
  308900        494.5   0.49713145 -5.0690987e-06     515.6412    558.52718    1074.1684     39438011 
  309000          495   0.50437947 2.5232638e-06    512.78998    566.67034    1079.4603     39616252 
  309100        495.5   0.50597838 -2.4523455e-06    514.49862    568.46671    1082.9653     39792672 
  309200          496   0.51932762 -1.2164139e-06    510.05823    583.46458    1093.5228     39943173 
  309300        496.5   0.49821301 6.5184458e-06     514.8384    559.74232    1074.5807     40071478 
  309400          497   0.52336868 -2.1040084e-06    542.54212    588.00471    1130.5468     40254008 
  309500        497.5   0.52803529 -5.7596762e-06     500.9821    593.24764    1094.2297     40465258 
  309600          498   0.49950439 1.1274844e-06    528.85275    561.19318    1090.0459     40620422 
  309700        498.5   0.50466092 -6.6961718e-07    526.48363    566.98654    1093.4702     40713825 
  309800          499   0.48926976 -2.174822e-06     516.0051    549.69458    1065.6997     40775580 
  309900        499.5   0.50185579 8.8077698e-06    516.66689    563.83498    1080.5019     40810912 
  310000          500    0.4904883 1.0375593e-06     522.2379    551.06361    1073.3015     40875889 
Loop time of 413.11 on 1 procs for 100000 steps with 750 atoms

Performance: 104572.522 tau/day, 242.066 timesteps/s
78.8% CPU use with 1 MPI tasks x 1 OpenMP threads

MPI task timing breakdown:
Section |  min time  |  avg time  |  max time  |%varavg| %total
---------------------------------------------------------------
Pair    | 0.94893    | 0.94893    | 0.94893    |   0.0 |  0.23
Bond    | 11.973     | 11.973     | 11.973     |   0.0 |  2.90
Neigh   | 362.96     | 362.96     | 362.96     |   0.0 | 87.86
Comm    | 12.952     | 12.952     | 12.952     |   0.0 |  3.14
Output  | 4.8864     | 4.8864     | 4.8864     |   0.0 |  1.18
Modify  | 18.892     | 18.892     | 18.892     |   0.0 |  4.57
Other   |            | 0.4949     |            |       |  0.12

Nlocal:    750 ave 750 max 750 min
Histogram: 1 0 0 0 0 0 0 0 0 0
Nghost:    34 ave 34 max 34 min
Histogram: 1 0 0 0 0 0 0 0 0 0
Neighs:    0 ave 0 max 0 min
Histogram: 1 0 0 0 0 0 0 0 0 0

Total # of neighbors = 0
Ave neighs/atom = 0
Ave special neighs/atom = 5.2
Neighbor list builds = 9272
Dangerous builds = 6039

unfix 2
unfix 3
fix 4 all nve
fix 5 all langevin ${T} ${T} 1 123456
fix 5 all langevin 0.5 ${T} 1 123456
fix 5 all langevin 0.5 0.5 1 123456
fix recen1 all recenter INIT INIT INIT


# RUN
run ${run_steps}
run 10000
Per MPI rank memory allocation (min/avg/max) = 471.1 | 471.1 | 471.1 Mbytes
Step Time Temp Press PotEng KinEng TotEng Volume 
  310000          500    0.4904883 1.0375593e-06     522.2379    551.06361    1073.3015     40875889 
  310100        500.5   0.49350562 -5.8764434e-06    497.00026    554.45356    1051.4538     40875889 
  310200          501   0.47084144 1.6875374e-06    519.31161    528.99036     1048.302     40875889 
  310300        501.5   0.50054149 2.3824417e-07    518.79782    562.35837    1081.1562     40875889 
  310400          502   0.50393931 8.0920349e-07     525.7224    566.17581    1091.8982     40875889 
  310500        502.5   0.50135691 -8.9511877e-07    510.53857    563.27449    1073.8131     40875889 
  310600          503    0.4932975 2.2444762e-06      505.865    554.21974    1060.0847     40875889 
  310700        503.5   0.49983753 2.0066951e-06    495.41479    561.56746    1056.9822     40875889 
  310800          504   0.51517264 1.474067e-06    489.71426    578.79646    1068.5107     40875889 
  310900        504.5   0.50817304 4.440221e-06    514.18759    570.93242      1085.12     40875889 
  311000          505   0.50522227 -2.4946898e-06    498.91033    567.61722    1066.5275     40875889 
  311100        505.5   0.51812234 2.6293734e-06     466.3141    582.11044    1048.4245     40875889 
  311200          506   0.47077373 4.9692954e-06    486.66669    528.91429     1015.581     40875889 
  311300        506.5   0.48575903 -1.0529669e-05    483.18239    545.75027    1028.9327     40875889 
  311400          507   0.49080571 6.5330872e-06    498.62868    551.42022    1050.0489     40875889 
  311500        507.5   0.49096251 2.8246491e-06    499.98299    551.59638    1051.5794     40875889 
  311600          508   0.49608551 -9.1333411e-07    509.19079    557.35207    1066.5429     40875889 
  311700        508.5   0.48503135 3.1881854e-06     512.6623    544.93273     1057.595     40875889 
  311800          509   0.49539178 -2.3087692e-06    498.73745    556.57266    1055.3101     40875889 
  311900        509.5   0.51958995 2.2230843e-06    488.17784    583.75931    1071.9371     40875889 
  312000          510   0.49241516 -1.5353805e-06    500.72823    553.22843    1053.9567     40875889 
  312100        510.5   0.49544178 4.289103e-06    503.78808    556.62884    1060.4169     40875889 
  312200          511   0.50926177 -5.3834411e-06    522.37033     572.1556    1094.5259     40875889 
  312300        511.5    0.5161965 1.1165501e-06    527.36707    579.94677    1107.3138     40875889 
  312400          512    0.5070188 -3.3172277e-07    513.49236    569.63562     1083.128     40875889 
  312500        512.5   0.49609498 -1.8349742e-06    492.15124    557.36271     1049.514     40875889 
  312600          513   0.49795297 1.2904582e-06    524.11265    559.45016    1083.5628     40875889 
  312700        513.5   0.50346711 -4.2127664e-07    514.94268     565.6453     1080.588     40875889 
  312800          514     0.523065 -4.0334127e-06    489.71249    587.66352     1077.376     40875889 
  312900        514.5   0.49035038 8.8940976e-06    493.50432    550.90866     1044.413     40875889 
  313000          515     0.503128 -4.2792183e-06    487.77519    565.26431    1053.0395     40875889 
  313100        515.5   0.49817069 -1.10182e-05    500.07529    559.69477    1059.7701     40875889 
  313200          516   0.48164054 8.3375721e-06    510.83514    541.12315    1051.9583     40875889 
  313300        516.5   0.52430528 -2.5492413e-06    504.05929    589.05698    1093.1163     40875889 
  313400          517   0.51858271 -2.6729874e-06    492.07456    582.62768    1074.7022     40875889 
  313500        517.5    0.5096296 8.8874049e-06    494.30084    572.56886    1066.8697     40875889 
  313600          518   0.53322466 -1.0138557e-05     501.3145    599.07791    1100.3924     40875889 
  313700        518.5   0.48184067 1.8826278e-06    495.06384    541.34799    1036.4118     40875889 
  313800          519   0.50531565 4.0556355e-06    477.82325    567.72213    1045.5454     40875889 
  313900        519.5   0.48314933 -7.4622706e-06    507.78461    542.81827    1050.6029     40875889 
  314000          520   0.49518493 2.8552683e-06    499.58209    556.34027    1055.9224     40875889 
  314100        520.5   0.51971571 -3.5749572e-06    502.81924    583.90061    1086.7198     40875889 
  314200          521   0.53187983 -3.1487225e-06    501.04536    597.56698    1098.6123     40875889 
  314300        521.5   0.50169851 7.3156257e-06    503.64999    563.65828    1067.3083     40875889 
  314400          522   0.49893101 -5.2979244e-06    491.04619    560.54898    1051.5952     40875889 
  314500        522.5   0.49044754 -4.2717479e-06    513.92669    551.01781    1064.9445     40875889 
  314600          523   0.48175024 3.325387e-06    522.56762    541.24639     1063.814     40875889 
  314700        523.5   0.51762687 -1.2934845e-06     489.3824    581.55379    1070.9362     40875889 
  314800          524   0.51584961 -4.9447358e-06    492.82202    579.55704    1072.3791     40875889 
  314900        524.5   0.49778389 1.2783326e-06    509.90613     559.2602    1069.1663     40875889 
  315000          525   0.52500299 1.4340064e-06    505.79396    589.84086    1095.6348     40875889 
  315100        525.5   0.51296434 -2.1924706e-06    513.69241    576.31544    1090.0079     40875889 
  315200          526    0.4957019 -1.7200004e-06    530.12897    556.92108    1087.0501     40875889 
  315300        526.5   0.51626624 1.983791e-06    517.87842    580.02512    1097.9035     40875889 
  315400          527   0.49335635 2.1497557e-06    522.53903    554.28586    1076.8249     40875889 
  315500        527.5   0.49956914 -1.441564e-07    497.29935    561.26593    1058.5653     40875889 
  315600          528   0.48586195 -3.3284316e-06    495.80945     545.8659    1041.6753     40875889 
  315700        528.5   0.50044467 -7.7555724e-08    486.63112    562.24959    1048.8807     40875889 
  315800          529   0.49285495 8.9007368e-06    510.46213    553.72254    1064.1847     40875889 
  315900        529.5   0.50656579 -1.4544354e-06    485.42553    569.12666    1054.5522     40875889 
  316000          530   0.52075458 -1.8384316e-06    501.57495    585.06777    1086.6427     40875889 
  316100        530.5   0.52054287 -1.5555216e-06     490.2831    584.82991     1075.113     40875889 
  316200          531   0.49856677 -4.0493397e-06    488.75357    560.13977    1048.8933     40875889 
  316300        531.5   0.48374965 1.1577803e-06    497.38008    543.49273    1040.8728     40875889 
  316400          532   0.47901708 1.0046438e-05    523.21037    538.17569    1061.3861     40875889 
  316500        532.5   0.50734389 -7.2408578e-06    495.89166    570.00086    1065.8925     40875889 
  316600          533   0.47492802 -1.3339831e-06    505.64673    533.58163    1039.2284     40875889 
  316700        533.5   0.46577685 8.4673894e-06     498.4634     523.3003    1021.7637     40875889 
  316800          534   0.46964852 -1.0010571e-05    461.42119    527.65011    989.07131     40875889 
  316900        534.5   0.47065416 9.3696664e-06    453.33053    528.77995    982.11048     40875889 
  317000          535   0.50044118 -3.176106e-06    434.58563    562.24567     996.8313     40875889 
  317100        535.5   0.50693055 -6.353071e-06    475.89298    569.53647    1045.4294     40875889 
  317200          536   0.48506251 1.1595162e-05    473.65037    544.96773    1018.6181     40875889 
  317300        536.5   0.48928725 -2.0820139e-06    470.85425    549.71422    1020.5685     40875889 
  317400          537   0.50894102 -4.1387187e-06    471.08566    571.79524    1042.8809     40875889 
  317500        537.5   0.49691955 6.5518026e-06    491.18502    558.28911    1049.4741     40875889 
  317600          538   0.48691738 -7.2152922e-06    491.13672    547.05167    1038.1884     40875889 
  317700        538.5   0.48608247 4.9492405e-06    517.51099    546.11366    1063.6246     40875889 
  317800          539   0.51111935 -2.1332603e-06    506.27699    574.24259    1080.5196     40875889 
  317900        539.5   0.51211286 6.749224e-06     493.8657     575.3588    1069.2245     40875889 
  318000          540   0.49458309 -4.6095886e-06    559.56417     555.6641    1115.2283     40875889 
  318100        540.5   0.51230994 4.6158635e-07    516.16731    575.58021    1091.7475     40875889 
  318200          541   0.49255036 8.5087041e-06    486.55791    553.38033    1039.9382     40875889 
  318300        541.5   0.50441674 -2.9188686e-06    485.40243    566.71221    1052.1146     40875889 
  318400          542   0.49641194 2.0937407e-06    502.52063    557.71881    1060.2394     40875889 
  318500        542.5   0.50726505 4.4862518e-06    479.79513    569.91228    1049.7074     40875889 
  318600          543   0.50077471 -8.3919831e-06    529.93755    562.62038    1092.5579     40875889 
  318700        543.5    0.5175946 2.3406809e-06    496.47364    581.51753    1077.9912     40875889 
  318800          544   0.51856374 6.9162495e-06     520.6968    582.60637    1103.3032     40875889 
  318900        544.5   0.52781723 -8.5919774e-06    499.12004    593.00266    1092.1227     40875889 
  319000          545   0.50640249 1.0720666e-05     501.5327     568.9432    1070.4759     40875889 
  319100        545.5   0.51682293 -1.5293074e-06    480.26634    580.65056    1060.9169     40875889 
  319200          546    0.4891476 -1.1461005e-06    496.57989    549.55733    1046.1372     40875889 
  319300        546.5    0.4887193 2.5319816e-06    491.25885    549.07614     1040.335     40875889 
  319400          547   0.48837834 2.334537e-06    488.39461    548.69307    1037.0877     40875889 
  319500        547.5   0.49278341 -3.8710738e-06    497.61502    553.64216    1051.2572     40875889 
  319600          548   0.49704315 1.0932866e-05    502.81402    558.42798     1061.242     40875889 
  319700        548.5   0.49419433 -4.3363658e-06    516.34621    555.22733    1071.5735     40875889 
  319800          549   0.50797605 5.3541136e-06    487.65825     570.7111    1058.3693     40875889 
  319900        549.5   0.48904755 2.677546e-06    480.67476    549.44493    1030.1197     40875889 
  320000          550   0.47244142 -5.2907641e-06    481.87374    530.78794    1012.6617     40875889 
Loop time of 67.122 on 1 procs for 10000 steps with 750 atoms

Performance: 64360.415 tau/day, 148.982 timesteps/s
99.1% CPU use with 1 MPI tasks x 1 OpenMP threads

MPI task timing breakdown:
Section |  min time  |  avg time  |  max time  |%varavg| %total
---------------------------------------------------------------
Pair    | 0.042425   | 0.042425   | 0.042425   |   0.0 |  0.06
Bond    | 0.79473    | 0.79473    | 0.79473    |   0.0 |  1.18
Neigh   | 62.936     | 62.936     | 62.936     |   0.0 | 93.76
Comm    | 2.0139     | 2.0139     | 2.0139     |   0.0 |  3.00
Output  | 0.44817    | 0.44817    | 0.44817    |   0.0 |  0.67
Modify  | 0.82664    | 0.82664    | 0.82664    |   0.0 |  1.23
Other   |            | 0.05997    |            |       |  0.09

Nlocal:    750 ave 750 max 750 min
Histogram: 1 0 0 0 0 0 0 0 0 0
Nghost:    9 ave 9 max 9 min
Histogram: 1 0 0 0 0 0 0 0 0 0
Neighs:    0 ave 0 max 0 min
Histogram: 1 0 0 0 0 0 0 0 0 0

Total # of neighbors = 0
Ave neighs/atom = 0
Ave special neighs/atom = 5.2
Neighbor list builds = 694
Dangerous builds = 6
write_restart restart.time*

#This section  of codes allows looping over the list of T values
clear
OMP_NUM_THREADS environment is not set. Defaulting to 1 thread. (../comm.cpp:94)
  using 1 OpenMP thread(s) per MPI task
next mix_steps
jump in.run_loop loop  #jumps back to loop label

Total wall time: 0:09:42
