LAMMPS (3 Mar 2020)
OMP_NUM_THREADS environment is not set. Defaulting to 1 thread. (../comm.cpp:94)
  using 1 OpenMP thread(s) per MPI task
#run with lmp_serial -pk omp 8 -sf omp -in in.run_loop

#SETUP
# Runs on the first loop only
shell del *.dump     # delete all dump files before first run CAREFUL WITH THIS
shell del restart.time*     # delete all current restart files before first run
shell lmp_serial -in in.run_setup     # first run of file, generate first restart file

#VARIABLES
variable N         equal  1024  #MUST BE SAME AS SETUP FILE FOR PHASEPLOT
variable len       equal  15
variable T         equal  0.5
variable t_step    equal  0.005 #originally 0.005
variable mix_steps index  0 5000 5000 10000 30000 50000 150000 500000
variable mix_tau   equal  ${t_step}*${mix_steps}
variable mix_tau   equal  0.005*${mix_steps}
variable mix_tau   equal  0.005*0
variable run_steps equal  10000 # steps to run simulation in order to reach steady state
variable run_tau   equal  ${t_step}*${run_steps} # this is the time in LJ units
variable run_tau   equal  0.005*${run_steps} 
variable run_tau   equal  0.005*10000 
#1000 particles averages 35,000 steps per minute

#LOOP START
label loop  #start loop from here
read_restart restart.time*
  restoring atom style molecular from restart
  orthogonal box = (-0.209749 -0.689043 -0.209749) to (18.4497 60.609 18.4497)
  1 by 1 by 1 MPI processor grid
  restoring pair style lj/cut from restart
  restoring bond style harmonic from restart
  restoring angle style harmonic from restart
  15360 atoms
  14336 bonds
  13312 angles
  2 = max # of 1-2 neighbors
  2 = max # of 1-3 neighbors
  4 = max # of 1-4 neighbors
  6 = max # of special neighbors
  special bonds CPU = 0.00997591 secs
  read_restart CPU = 0.0428789 secs
# this reads in latest restart file, * is wildcard for timestep


# THERMAL
timestep ${t_step}
timestep 0.005
thermo   100
thermo_style custom step time temp press pe ke etotal vol
thermo_modify norm no


# DUMP OUTPUT
dump  1  all custom 2500 output_T_${T}_time_*.dump id mol type x y z vx vy vz
dump  1  all custom 2500 output_T_0.5_time_*.dump id mol type x y z vx vy vz
# dumps all positions etc every N  steps
dump_modify 1 sort id

# FIX
fix 2 all nph iso 0.00001 0.00001 5   #reduced target pressure here
fix 3 all langevin ${T} ${T} 1 123456 #as above
fix 3 all langevin 0.5 ${T} 1 123456 
fix 3 all langevin 0.5 0.5 1 123456 
run ${mix_steps}
run 0
Neighbor list info ...
  update every 1 steps, delay 10 steps, check yes
  max neighbors/atom: 2000, page size: 100000
  master list distance cutoff = 1.42
  ghost atom cutoff = 1.9
  binsize = 0.71, bins = 27 87 27
  1 neighbor lists, perpetual/occasional/extra = 1 0 0
  (1) pair lj/cut, perpetual
      attributes: half, newton on
      pair build: half/bin/newton
      stencil: half/bin/3d/newton
      bin: standard
Per MPI rank memory allocation (min/avg/max) = 17.61 | 17.61 | 17.61 Mbytes
Step Time Temp Press PotEng KinEng TotEng Volume 
       0            0    1.5528979    3.6104287     44458.93    35776.438    80235.369    21342.574 
Loop time of 0 on 1 procs for 0 steps with 15360 atoms

0.0% CPU use with 1 MPI tasks x 1 OpenMP threads

MPI task timing breakdown:
Section |  min time  |  avg time  |  max time  |%varavg| %total
---------------------------------------------------------------
Pair    | 0          | 0          | 0          |   0.0 |  0.00
Bond    | 0          | 0          | 0          |   0.0 |  0.00
Neigh   | 0          | 0          | 0          |   0.0 |  0.00
Comm    | 0          | 0          | 0          |   0.0 |  0.00
Output  | 0          | 0          | 0          |   0.0 |  0.00
Modify  | 0          | 0          | 0          |   0.0 |  0.00
Other   |            | 0          |            |       |  0.00

Nlocal:    15360 ave 15360 max 15360 min
Histogram: 1 0 0 0 0 0 0 0 0 0
Nghost:    7672 ave 7672 max 7672 min
Histogram: 1 0 0 0 0 0 0 0 0 0
Neighs:    57868 ave 57868 max 57868 min
Histogram: 1 0 0 0 0 0 0 0 0 0

Total # of neighbors = 57868
Ave neighs/atom = 3.76745
Ave special neighs/atom = 5.2
Neighbor list builds = 0
Dangerous builds = 0

unfix 2
unfix 3
fix 4 all nve
fix 5 all langevin ${T} ${T} 1 123456
fix 5 all langevin 0.5 ${T} 1 123456
fix 5 all langevin 0.5 0.5 1 123456
fix recen1 all recenter INIT INIT INIT


# RUN
run ${run_steps}
run 10000
Per MPI rank memory allocation (min/avg/max) = 17.61 | 17.61 | 17.61 Mbytes
Step Time Temp Press PotEng KinEng TotEng Volume 
       0            0    1.5528979    3.6104287     44458.93    35776.438    80235.369    21342.574 
     100          0.5    1.1593046    2.1410066    33624.225    26708.639    60332.864    21342.574 
     200            1   0.92182239    2.7453164    26943.654    21237.405     48181.06    21342.574 
     300          1.5   0.75726589    2.0877924    23040.333     17446.27    40486.603    21342.574 
     400            2   0.66718833    2.1066144    20298.599    15371.018    35669.618    21342.574 
     500          2.5    0.6036002    1.9486152    18781.353    13906.043    32687.396    21342.574 
     600            3   0.57147386    1.8493721     17343.97    13165.901    30509.871    21342.574 
     700          3.5   0.55239107    1.8079829    16522.905    12726.262    29249.167    21342.574 
     800            4   0.53723232    1.7731017    15982.248    12377.027    28359.275    21342.574 
     900          4.5   0.52660931     1.695205    15381.543    12132.289    27513.831    21342.574 
    1000            5   0.51458554    1.6104042    15201.483    11855.279    27056.762    21342.574 
    1100          5.5   0.51094937     1.717042    14959.455    11771.507    26730.962    21342.574 
    1200            6   0.50973469    1.5675092    14713.589    11743.523    26457.112    21342.574 
    1300          6.5   0.50682516    1.5452335    14530.388    11676.491    26206.879    21342.574 
    1400            7   0.50101574    1.4711557    14473.904    11542.651    26016.555    21342.574 
    1500          7.5   0.50338737    1.5537926    14295.684     11597.29    25892.973    21342.574 
    1600            8   0.49949661    1.5644685    14258.346    11507.653    25765.999    21342.574 
    1700          8.5   0.50049706    1.4373826     14008.63    11530.701    25539.331    21342.574 
    1800            9   0.50011636     1.505735    13967.886    11521.931    25489.816    21342.574 
    1900          9.5   0.49918936    1.5627733     13905.21    11500.574    25405.784    21342.574 
    2000           10   0.50032516    1.4051117    13797.962    11526.741    25324.704    21342.574 
    2100         10.5   0.50540698    1.4048024    13787.712    11643.819    25431.531    21342.574 
    2200           11   0.50139247    1.4312276    13782.602     11551.33    25333.932    21342.574 
    2300         11.5   0.50880653    1.4584073    13593.671    11722.139     25315.81    21342.574 
    2400           12   0.50263273    1.3467746     13575.45    11579.904    25155.354    21342.574 
    2500         12.5   0.50156037    1.4576514    13534.982    11555.199     25090.18    21342.574 
    2600           13   0.50167264     1.346658    13379.877    11557.785    24937.662    21342.574 
    2700         13.5   0.50217232    1.3853576    13388.871    11569.297    24958.168    21342.574 
    2800           14   0.50054677    1.3961546    13381.292    11531.847    24913.138    21342.574 
    2900         14.5   0.49939388    1.3288646    13277.309    11505.286    24782.595    21342.574 
    3000           15   0.50224251    1.3859046     13256.54    11570.914    24827.454    21342.574 
    3100         15.5   0.50071298    1.2470361    13114.626    11535.676    24650.302    21342.574 
    3200           16   0.49852475    1.3743605    13046.004    11485.263    24531.267    21342.574 
    3300         16.5   0.50039857    1.2721482    13090.033    11528.432    24618.466    21342.574 
    3400           17   0.50236049    1.3408115    13039.888    11573.632    24613.521    21342.574 
    3500         17.5   0.50022335     1.340952    13049.983    11524.396    24574.379    21342.574 
    3600           18   0.50463626    1.2119522    12988.964    11626.062    24615.026    21342.574 
    3700         18.5   0.50237405    1.2783063    13004.658    11573.945    24578.603    21342.574 
    3800           19    0.5022603    1.2720819    12986.199    11571.324    24557.523    21342.574 
    3900         19.5   0.49937591    1.1713563    12940.814    11504.872    24445.686    21342.574 
    4000           20   0.49952424    1.2941306    12719.074    11508.289    24227.363    21342.574 
    4100         20.5   0.50430053    1.2682924    12743.074    11618.328    24361.402    21342.574 
    4200           21   0.49488717    1.2691919    12834.026    11401.458    24235.484    21342.574 
    4300         21.5    0.5001915    1.2644357    12747.702    11523.662    24271.364    21342.574 
    4400           22   0.49858591     1.186992    12772.117    11486.672    24258.789    21342.574 
    4500         22.5   0.50108154    1.2090324    12612.661    11544.167    24156.828    21342.574 
    4600           23   0.49947157    1.2329202    12600.701    11507.076    24107.776    21342.574 
    4700         23.5   0.49827492    1.1658349    12818.449    11479.507    24297.956    21342.574 
    4800           24   0.49921254    1.2716976    12775.125    11501.108    24276.233    21342.574 
    4900         24.5   0.50331799    1.1806312    12718.108    11595.692      24313.8    21342.574 
    5000           25   0.49856308    1.2250465    12728.479    11486.146    24214.624    21342.574 
    5100         25.5    0.5022805    1.3209719    12550.176    11571.789    24121.965    21342.574 
    5200           26   0.50371038    1.0955276    12618.006    11604.732    24222.738    21342.574 
    5300         26.5   0.50631615    1.1687697    12662.693    11664.765    24327.457    21342.574 
    5400           27   0.50180758    1.2125909    12719.885    11560.894    24280.779    21342.574 
    5500         27.5   0.50500789    1.1406788    12680.413    11634.624    24315.038    21342.574 
    5600           28   0.50320903    1.2438849     12623.19    11593.181    24216.371    21342.574 
    5700         28.5   0.50519854    1.1072439    12635.207    11639.017    24274.223    21342.574 
    5800           29   0.50661821     1.202603    12616.781    11671.724    24288.504    21342.574 
    5900         29.5   0.50463261    1.1503933    12589.484    11625.978    24215.462    21342.574 
    6000           30   0.50228508     1.120219    12482.962    11571.895    24054.857    21342.574 
    6100         30.5   0.49557386    1.2071854    12459.652    11417.278     23876.93    21342.574 
    6200           31   0.49878761    1.0545138    12538.927    11491.318    24030.245    21342.574 
    6300         31.5   0.49772051    1.1773551    12521.252    11466.734    23987.986    21342.574 
    6400           32   0.49842979    1.1001232    12474.831    11483.075    23957.905    21342.574 
    6500         32.5    0.5023656    1.1094499    12355.656     11573.75    23929.406    21342.574 
    6600           33   0.49533787    1.1044666    12508.973    11411.842    23920.814    21342.574 
    6700         33.5   0.50189965     1.120542    12414.029    11563.015    23977.044    21342.574 
    6800           34   0.50522489    1.1242627    12426.344    11639.624    24065.968    21342.574 
    6900         34.5   0.50505808    1.1162291    12407.519    11635.781      24043.3    21342.574 
    7000           35   0.49186374    1.0699501    12396.079    11331.803    23727.882    21342.574 
    7100         35.5    0.4962378    1.1075019    12338.072    11432.574    23770.646    21342.574 
    7200           36   0.49177862    1.1504715    12429.831    11329.842    23759.673    21342.574 
    7300         36.5    0.5000851     1.053417    12201.409    11521.211    23722.619    21342.574 
    7400           37   0.50307687    1.1385824    12350.917    11590.136    23941.053    21342.574 
    7500         37.5   0.49976443    1.0556299    12253.223    11513.823    23767.046    21342.574 
    7600           38   0.50208536    1.0889708    12229.514    11567.294    23796.808    21342.574 
    7700         38.5   0.49906332    1.1332264    12269.224     11497.67    23766.894    21342.574 
    7800           39   0.50156435    1.0497636    12208.808     11555.29    23764.099    21342.574 
    7900         39.5   0.50093362    1.0966827    12183.094    11540.759    23723.853    21342.574 
    8000           40   0.49902443     1.114295    12259.056    11496.774    23755.831    21342.574 
    8100         40.5    0.4964689    1.0479966    12308.565    11437.899    23746.464    21342.574 
    8200           41    0.4983379    1.0144892    12243.533    11480.958    23724.491    21342.574 
    8300         41.5   0.50277569    1.0736037    12075.941    11583.198    23659.139    21342.574 
    8400           42   0.49775044    1.0942181     12181.01    11467.424    23648.433    21342.574 
    8500         42.5   0.50004993    1.0049463    12151.163      11520.4    23671.563    21342.574 
    8600           43   0.50513436    1.0599719    12133.694    11637.538    23771.232    21342.574 
    8700         43.5   0.50068932    1.0307869     12121.77    11535.131    23656.901    21342.574 
    8800           44   0.50544106    1.1029199    12220.251    11644.604    23864.855    21342.574 
    8900         44.5   0.50320362    1.0423966    12208.343    11593.057      23801.4    21342.574 
    9000           45   0.49877159    1.0408883    12200.459    11490.949    23691.408    21342.574 
    9100         45.5   0.50143713    1.1200848    12142.612    11552.359    23694.971    21342.574 
    9200           46   0.49770921    1.0253708    12183.553    11466.474    23650.027    21342.574 
    9300         46.5   0.50048074    1.0674133    12189.553    11530.326    23719.878    21342.574 
    9400           47   0.50565819    1.0541285    12062.406    11649.606    23712.013    21342.574 
    9500         47.5   0.49930454    1.0605584     12143.01    11503.228    23646.238    21342.574 
    9600           48   0.50166641    1.0804655    12072.867    11557.641    23630.508    21342.574 
    9700         48.5   0.49998918    1.0831262    11981.182    11519.001    23500.183    21342.574 
    9800           49   0.50009209    1.0362383    12006.323    11521.372    23527.695    21342.574 
    9900         49.5   0.49632779    1.0241825    12021.291    11434.648    23455.939    21342.574 
   10000           50   0.49746035    1.0849157    12011.279     11460.74    23472.019    21342.574 
Loop time of 43.656 on 1 procs for 10000 steps with 15360 atoms

Performance: 98955.406 tau/day, 229.063 timesteps/s
99.1% CPU use with 1 MPI tasks x 1 OpenMP threads

MPI task timing breakdown:
Section |  min time  |  avg time  |  max time  |%varavg| %total
---------------------------------------------------------------
Pair    | 8.3759     | 8.3759     | 8.3759     |   0.0 | 19.19
Bond    | 11.3       | 11.3       | 11.3       |   0.0 | 25.88
Neigh   | 9.8435     | 9.8435     | 9.8435     |   0.0 | 22.55
Comm    | 1.946      | 1.946      | 1.946      |   0.0 |  4.46
Output  | 0.50667    | 0.50667    | 0.50667    |   0.0 |  1.16
Modify  | 11.153     | 11.153     | 11.153     |   0.0 | 25.55
Other   |            | 0.5311     |            |       |  1.22

Nlocal:    15360 ave 15360 max 15360 min
Histogram: 1 0 0 0 0 0 0 0 0 0
Nghost:    7569 ave 7569 max 7569 min
Histogram: 1 0 0 0 0 0 0 0 0 0
Neighs:    62031 ave 62031 max 62031 min
Histogram: 1 0 0 0 0 0 0 0 0 0

Total # of neighbors = 62031
Ave neighs/atom = 4.03848
Ave special neighs/atom = 5.2
Neighbor list builds = 893
Dangerous builds = 208
write_restart restart.time*

#This section  of codes allows looping over the list of T values
clear
OMP_NUM_THREADS environment is not set. Defaulting to 1 thread. (../comm.cpp:94)
  using 1 OpenMP thread(s) per MPI task
next mix_steps
jump in.run_loop loop  #jumps back to loop label
read_restart restart.time*
  restoring atom style molecular from restart
  orthogonal box = (-0.209749 -0.689043 -0.209749) to (18.4497 60.609 18.4497)
  1 by 1 by 1 MPI processor grid
  restoring pair style lj/cut from restart
  restoring bond style harmonic from restart
  restoring angle style harmonic from restart
  15360 atoms
  14336 bonds
  13312 angles
  2 = max # of 1-2 neighbors
  2 = max # of 1-3 neighbors
  4 = max # of 1-4 neighbors
  6 = max # of special neighbors
  special bonds CPU = 0.00897694 secs
  read_restart CPU = 0.0458741 secs
# this reads in latest restart file, * is wildcard for timestep


# THERMAL
timestep ${t_step}
timestep 0.005
thermo   100
thermo_style custom step time temp press pe ke etotal vol
thermo_modify norm no


# DUMP OUTPUT
dump  1  all custom 2500 output_T_${T}_time_*.dump id mol type x y z vx vy vz
dump  1  all custom 2500 output_T_0.5_time_*.dump id mol type x y z vx vy vz
# dumps all positions etc every N  steps
dump_modify 1 sort id

# FIX
fix 2 all nph iso 0.00001 0.00001 5   #reduced target pressure here
fix 3 all langevin ${T} ${T} 1 123456 #as above
fix 3 all langevin 0.5 ${T} 1 123456 
fix 3 all langevin 0.5 0.5 1 123456 
run ${mix_steps}
run 5000
Neighbor list info ...
  update every 1 steps, delay 10 steps, check yes
  max neighbors/atom: 2000, page size: 100000
  master list distance cutoff = 1.42
  ghost atom cutoff = 1.9
  binsize = 0.71, bins = 27 87 27
  1 neighbor lists, perpetual/occasional/extra = 1 0 0
  (1) pair lj/cut, perpetual
      attributes: half, newton on
      pair build: half/bin/newton
      stencil: half/bin/3d/newton
      bin: standard
Per MPI rank memory allocation (min/avg/max) = 17.6 | 17.6 | 17.6 Mbytes
Step Time Temp Press PotEng KinEng TotEng Volume 
   10000            0   0.49746035    1.0849157    12011.279     11460.74    23472.019    21342.574 
   10100          0.5   0.49949815   0.70317711    11693.324    11507.688    23201.012    21866.189 
   10200            1   0.49526288   0.50074743     11414.98    11410.114    22825.094    22533.783 
   10300          1.5    0.4974433   0.70524374    11206.177    11460.347    22666.524    23077.064 
   10400            2   0.49545453   0.59951766    11092.599    11414.529    22507.128    23596.304 
   10500          2.5   0.49447471   0.44768355    11037.934    11391.956    22429.889    24087.915 
   10600            3   0.49374788   0.43943943    11019.101    11375.211    22394.311    24540.877 
   10700          3.5    0.4939152    0.4681918    10990.911    11379.065    22369.977    24978.317 
   10800            4   0.49367103   0.39293251    10902.443     11373.44    22275.883    25421.582 
   10900          4.5    0.4914901    0.3398618    10940.921    11323.195    22264.116    25846.272 
   11000            5   0.49911866   0.32666894    10842.101    11498.945    22341.047    26266.472 
   11100          5.5   0.49476989   0.33721815    10795.654    11398.756     22194.41    26661.882 
   11200            6   0.49334513   0.27572467    10788.856    11365.932    22154.788    27069.102 
   11300          6.5   0.49738814   0.32259383    10672.782    11459.077    22131.859     27455.31 
   11400            7   0.48879656    0.2871543     10655.78     11261.14    21916.919    27859.777 
   11500          7.5   0.48883545   0.21741573    10637.043    11262.035    21899.079    28237.832 
   11600            8   0.49556979   0.25906289    10678.057    11417.185    22095.242    28606.414 
   11700          8.5   0.49446744   0.21827254    10633.935    11391.788    22025.723    28996.628 
   11800            9   0.49515439   0.21595008    10613.963    11407.614    22021.578     29357.87 
   11900          9.5   0.49848026   0.23896999    10741.615    11484.238    22225.852    29720.465 
   12000           10   0.49318742    0.2295829    10495.269    11362.298    21857.568    30075.098 
   12100         10.5   0.49228797   0.19248262    10520.674    11341.576     21862.25    30419.967 
   12200           11   0.49113003   0.21486843    10495.298    11314.899    21810.198    30763.946 
   12300         11.5   0.49447451   0.20645484    10562.389    11391.951     21954.34    31137.707 
   12400           12   0.50054307   0.16152301    10618.423    11531.761    22150.185    31509.349 
   12500         12.5   0.49967347   0.18124534    10564.963    11511.727     22076.69    31859.185 
   12600           13   0.49873523   0.19157664    10713.384    11490.111    22203.495    32202.047 
   12700         13.5   0.50022947   0.16299472    10643.612    11524.537    22168.149    32571.127 
   12800           14   0.49977808   0.15822229    10590.903    11514.137     22105.04    32945.889 
   12900         14.5   0.50141786   0.16459739     10518.79    11551.915    22070.705    33310.725 
   13000           15   0.49992898   0.19195318    10637.869    11517.614    22155.483    33653.331 
   13100         15.5   0.49619293   0.16368352    10660.364    11431.541    22091.905    34013.178 
   13200           16   0.49989168   0.15375678    10507.101    11516.754    22023.855    34379.244 
   13300         16.5   0.50012759   0.13083666    10372.474     11522.19    21894.663    34724.744 
   13400           17   0.50070799   0.12126031    10522.416    11535.561    22057.977    35077.146 
   13500         17.5   0.49478543   0.14808337     10548.83    11399.114    21947.944    35416.699 
   13600           18   0.49566598   0.12652366    10470.181    11419.401    21889.582    35784.318 
   13700         18.5   0.49104161  0.083237808    10393.185    11312.862    21706.047    36159.266 
   13800           19   0.49480881   0.14161821    10386.912    11399.653    21786.565    36499.259 
   13900         19.5   0.49290955   0.14096787     10483.11    11355.897    21839.006    36854.996 
   14000           20   0.49706485   0.12102106    10543.173    11451.629    21994.802    37240.911 
   14100         20.5   0.49982212   0.12898668    10432.336    11515.152    21947.488    37609.747 
   14200           21   0.50082917   0.10801738    10414.404    11538.353    21952.757    37965.278 
   14300         21.5     0.497912   0.13544793    10501.864    11471.146    21973.009    38293.536 
   14400           22   0.50273264   0.09706781    10580.959    11582.206    22163.165    38673.452 
   14500         22.5   0.50057678   0.12505828    10559.048    11532.538    22091.586    39018.306 
   14600           23    0.4936596  0.090311737    10584.145    11373.177    21957.322    39382.615 
   14700         23.5   0.49526372  0.090675104     10502.65    11410.133    21912.783    39742.994 
   14800           24   0.49866968  0.098392948    10453.831    11488.601    21942.433    40080.062 
   14900         24.5   0.50096098  0.096624441    10550.839     11541.39    22092.229    40413.064 
   15000           25   0.49874019  0.074573386    10540.733    11490.226    22030.959    40760.791 
Loop time of 23.3306 on 1 procs for 5000 steps with 15360 atoms

Performance: 92582.322 tau/day, 214.311 timesteps/s
98.7% CPU use with 1 MPI tasks x 1 OpenMP threads

MPI task timing breakdown:
Section |  min time  |  avg time  |  max time  |%varavg| %total
---------------------------------------------------------------
Pair    | 2.9346     | 2.9346     | 2.9346     |   0.0 | 12.58
Bond    | 7.8814     | 7.8814     | 7.8814     |   0.0 | 33.78
Neigh   | 4.5997     | 4.5997     | 4.5997     |   0.0 | 19.72
Comm    | 0.86889    | 0.86889    | 0.86889    |   0.0 |  3.72
Output  | 0.25775    | 0.25775    | 0.25775    |   0.0 |  1.10
Modify  | 6.5437     | 6.5437     | 6.5437     |   0.0 | 28.05
Other   |            | 0.2445     |            |       |  1.05

Nlocal:    15360 ave 15360 max 15360 min
Histogram: 1 0 0 0 0 0 0 0 0 0
Nghost:    5439 ave 5439 max 5439 min
Histogram: 1 0 0 0 0 0 0 0 0 0
Neighs:    27352 ave 27352 max 27352 min
Histogram: 1 0 0 0 0 0 0 0 0 0

Total # of neighbors = 27352
Ave neighs/atom = 1.78073
Ave special neighs/atom = 5.2
Neighbor list builds = 488
Dangerous builds = 374

unfix 2
unfix 3
fix 4 all nve
fix 5 all langevin ${T} ${T} 1 123456
fix 5 all langevin 0.5 ${T} 1 123456
fix 5 all langevin 0.5 0.5 1 123456
fix recen1 all recenter INIT INIT INIT


# RUN
run ${run_steps}
run 10000
Per MPI rank memory allocation (min/avg/max) = 17.89 | 17.89 | 17.89 Mbytes
Step Time Temp Press PotEng KinEng TotEng Volume 
   15000           25   0.49874019  0.074573386    10540.733    11490.226    22030.959    40760.791 
   15100         25.5   0.49981349  0.093706422    10615.128    11514.953    22130.082    40760.791 
   15200           26   0.50500789   0.14662169    10482.415    11634.624    22117.039    40760.791 
   15300         26.5   0.49906338   0.07398729    10517.575    11497.672    22015.247    40760.791 
   15400           27   0.50162043   0.14935964    10520.763    11556.582    22077.345    40760.791 
   15500         27.5   0.49496278   0.10159166      10549.8      11403.2        21953    40760.791 
   15600           28   0.49781598  0.088326316    10451.062    11468.933    21919.996    40760.791 
   15700         28.5   0.50137289   0.14959674    10450.113    11550.879    22000.992    40760.791 
   15800           29   0.49479525   0.11494005     10583.05     11399.34     21982.39    40760.791 
   15900         29.5   0.50158484   0.10098092     10351.97    11555.762    21907.733    40760.791 
   16000           30   0.49790012    0.1420882    10458.767    11470.872    21929.639    40760.791 
   16100         30.5   0.49922365   0.11791993     10494.79    11501.364    21996.155    40760.791 
   16200           31   0.49943437   0.13819705    10572.991    11506.219     22079.21    40760.791 
   16300         31.5   0.50007154  0.089491213    10509.634    11520.898    22030.532    40760.791 
   16400           32   0.49569317   0.11918174    10521.694    11420.027    21941.721    40760.791 
   16500         32.5   0.49740889   0.10907221    10503.555    11459.555     21963.11    40760.791 
   16600           33   0.49951395   0.10041388    10510.981    11508.052    22019.033    40760.791 
   16700         33.5   0.49632574   0.11822134    10402.539    11434.601    21837.139    40760.791 
   16800           34   0.49428135   0.14647306     10543.89    11387.501     21931.39    40760.791 
   16900         34.5   0.49973529   0.10723578    10473.602    11513.152    21986.753    40760.791 
   17000           35   0.49828528  0.093875222    10520.267    11479.745    22000.012    40760.791 
   17100         35.5   0.49900491   0.13291478    10562.622    11496.325    22058.947    40760.791 
   17200           36    0.4972578   0.11505186    10475.805    11456.074    21931.879    40760.791 
   17300         36.5   0.49840961   0.14537536    10630.328     11482.61    22112.938    40760.791 
   17400           37   0.49751523  0.092295151    10507.372    11462.005    21969.376    40760.791 
   17500         37.5   0.49474765   0.11070175     10443.46    11398.244    21841.704    40760.791 
   17600           38   0.50026305   0.14057425    10444.843     11525.31    21970.154    40760.791 
   17700         38.5   0.50177381   0.09080511    10597.206    11560.116    22157.322    40760.791 
   17800           39   0.49689889   0.13292133    10671.096    11447.805      22118.9    40760.791 
   17900         39.5    0.4971199   0.13051624    10535.806    11452.897    21988.703    40760.791 
   18000           40   0.49900475   0.11092528    10460.055    11496.321    21956.376    40760.791 
   18100         40.5   0.49532512   0.11885675    10495.058    11411.548    21906.606    40760.791 
   18200           41    0.4964886   0.12217313    10535.451    11438.353    21973.804    40760.791 
   18300         41.5     0.495404   0.13405672     10610.85    11413.365    22024.215    40760.791 
   18400           42   0.50223031   0.13333419    10532.808    11570.633    22103.441    40760.791 
   18500         42.5   0.50319394   0.13118918    10577.364    11592.834    22170.198    40760.791 
   18600           43   0.49925457   0.11244445    10616.133    11502.076     22118.21    40760.791 
   18700         43.5    0.4975798   0.10512137    10646.354    11463.492    22109.846    40760.791 
   18800           44    0.5031139   0.10380523    10593.653     11590.99    22184.642    40760.791 
   18900         44.5   0.50473755    0.1090786    10559.862    11628.396    22188.258    40760.791 
   19000           45   0.49895042   0.14660846    10614.844    11495.069    22109.913    40760.791 
   19100         45.5   0.50009339   0.11648514    10585.439    11521.402    22106.841    40760.791 
   19200           46   0.50524272  0.081195205    10468.204    11640.034    22108.238    40760.791 
   19300         46.5    0.4986543   0.12097682    10480.425    11488.247    21968.672    40760.791 
   19400           47   0.49862407    0.1500354    10570.003    11487.551    22057.553    40760.791 
   19500         47.5   0.50182397   0.11845314    10595.205    11561.272    22156.476    40760.791 
   19600           48   0.50128615   0.13156789    10474.994    11548.881    22023.875    40760.791 
   19700         48.5    0.5066896  0.093021686    10482.657    11673.368    22156.025    40760.791 
   19800           49   0.49872751   0.11480518    10620.579    11489.934    22110.513    40760.791 
   19900         49.5   0.50431968   0.10696723    10488.525    11618.769    22107.294    40760.791 
   20000           50   0.49999572   0.13185936    10731.238    11519.151     22250.39    40760.791 
   20100         50.5   0.49805634   0.10484902    10537.409    11474.471     22011.88    40760.791 
   20200           51   0.50250729   0.11262594    10575.945    11577.014    22152.959    40760.791 
   20300         51.5   0.50138894    0.1121976    10646.463    11551.249    22197.712    40760.791 
   20400           52   0.50291951   0.13430366    10564.788    11586.511    22151.299    40760.791 
   20500         52.5    0.5035717    0.1130396    10669.624    11601.537    22271.161    40760.791 
   20600           53   0.49971507  0.092884914    10595.445    11512.686     22108.13    40760.791 
   20700         53.5     0.498068   0.10875971     10652.52     11474.74    22127.259    40760.791 
   20800           54   0.49472794   0.14261197    10607.809     11397.79    22005.599    40760.791 
   20900         54.5   0.49930763  0.092947716     10557.42    11503.299    22060.719    40760.791 
   21000           55   0.49403443   0.11805479    10598.454    11381.812    21980.266    40760.791 
   21100         55.5   0.50194997   0.15018171    10549.277    11564.174    22113.452    40760.791 
   21200           56   0.49907781  0.059669425      10569.1    11498.004    22067.104    40760.791 
   21300         56.5    0.5025136   0.15088332    10588.212     11577.16    22165.371    40760.791 
   21400           57    0.5020401   0.13219484    10568.391    11566.251    22134.642    40760.791 
   21500         57.5   0.50149912  0.078872754    10507.356    11553.788    22061.143    40760.791 
   21600           58   0.49883985   0.13768419    10473.131    11492.522    21965.653    40760.791 
   21700         58.5   0.49804777  0.099503059      10574.7    11474.274    22048.974    40760.791 
   21800           59   0.50444213  0.097010456    10593.523     11621.59    22215.114    40760.791 
   21900         59.5   0.50161368   0.16379119    10527.428    11556.427    22083.855    40760.791 
   22000           60    0.5030266     0.113664    10580.315    11588.978    22169.293    40760.791 
   22100         60.5   0.50468712  0.091946852    10535.681    11627.234    22162.915    40760.791 
   22200           61   0.50420851   0.10061443    10556.622    11616.208     22172.83    40760.791 
   22300         61.5   0.50512496   0.14865584    10360.197    11637.321    21997.519    40760.791 
   22400           62   0.49595664   0.11562541    10515.577    11426.097    21941.674    40760.791 
   22500         62.5   0.49866413   0.11147466    10506.964    11488.474    21995.438    40760.791 
   22600           63   0.49865538    0.1117958    10513.906    11488.272    22002.178    40760.791 
   22700         63.5     0.501475   0.11726346    10504.845    11553.232    22058.077    40760.791 
   22800           64   0.50097057   0.12057947    10598.586     11541.61    22140.197    40760.791 
   22900         64.5   0.50513634   0.11099554    10514.107    11637.584    22151.691    40760.791 
   23000           65   0.50210737   0.10411723    10469.482    11567.801    22037.282    40760.791 
   23100         65.5   0.49853456  0.087629936    10529.364    11485.488    22014.853    40760.791 
   23200           66   0.49952834   0.13442298    10578.965    11508.384    22087.349    40760.791 
   23300         66.5   0.49798685   0.10360092    10527.414     11472.87    22000.284    40760.791 
   23400           67   0.49592622   0.12631229    10592.045    11425.396    22017.441    40760.791 
   23500         67.5   0.49831828   0.14023522    10483.283    11480.506    21963.789    40760.791 
   23600           68   0.50056612   0.10274155    10534.738    11532.292     22067.03    40760.791 
   23700         68.5   0.50033065   0.11160017    10524.062    11526.868     22050.93    40760.791 
   23800           69   0.49036158  0.093133637    10568.522    11297.195    21865.717    40760.791 
   23900         69.5   0.49456218  0.092815085    10416.917    11393.971    21810.888    40760.791 
   24000           70    0.4985676   0.12094574    10550.263     11486.25    22036.512    40760.791 
   24100         70.5   0.50013184    0.1219971    10448.743    11522.288     21971.03    40760.791 
   24200           71    0.4989457   0.12110805    10566.571     11494.96    22061.531    40760.791 
   24300         71.5    0.4952527   0.12238153    10542.937    11409.879    21952.816    40760.791 
   24400           72   0.49825774   0.10920395    10543.042    11479.111    22022.153    40760.791 
   24500         72.5    0.4949332   0.10643238    10471.232    11402.519     21873.75    40760.791 
   24600           73   0.49888898   0.13275707    10476.021    11493.654    21969.675    40760.791 
   24700         73.5   0.50224178  0.092923896    10594.564    11570.897    22165.462    40760.791 
   24800           74   0.50353133   0.15836971    10657.003    11600.606    22257.609    40760.791 
   24900         74.5   0.49666466  0.098374671    10654.155    11442.409    22096.564    40760.791 
   25000           75   0.49471648   0.10930216    10675.524    11397.526     22073.05    40760.791 
Loop time of 37.6265 on 1 procs for 10000 steps with 15360 atoms

Performance: 114812.726 tau/day, 265.770 timesteps/s
99.0% CPU use with 1 MPI tasks x 1 OpenMP threads

MPI task timing breakdown:
Section |  min time  |  avg time  |  max time  |%varavg| %total
---------------------------------------------------------------
Pair    | 4.1531     | 4.1531     | 4.1531     |   0.0 | 11.04
Bond    | 11.601     | 11.601     | 11.601     |   0.0 | 30.83
Neigh   | 7.5073     | 7.5073     | 7.5073     |   0.0 | 19.95
Comm    | 1.7634     | 1.7634     | 1.7634     |   0.0 |  4.69
Output  | 0.54482    | 0.54482    | 0.54482    |   0.0 |  1.45
Modify  | 11.477     | 11.477     | 11.477     |   0.0 | 30.50
Other   |            | 0.5806     |            |       |  1.54

Nlocal:    15360 ave 15360 max 15360 min
Histogram: 1 0 0 0 0 0 0 0 0 0
Nghost:    5787 ave 5787 max 5787 min
Histogram: 1 0 0 0 0 0 0 0 0 0
Neighs:    23577 ave 23577 max 23577 min
Histogram: 1 0 0 0 0 0 0 0 0 0

Total # of neighbors = 23577
Ave neighs/atom = 1.53496
Ave special neighs/atom = 5.2
Neighbor list builds = 884
Dangerous builds = 155
write_restart restart.time*

#This section  of codes allows looping over the list of T values
clear
OMP_NUM_THREADS environment is not set. Defaulting to 1 thread. (../comm.cpp:94)
  using 1 OpenMP thread(s) per MPI task
next mix_steps
jump in.run_loop loop  #jumps back to loop label
read_restart restart.time*
  restoring atom style molecular from restart
  orthogonal box = (-2.45538 -8.06614 -2.45538) to (20.6954 67.9861 20.6954)
  1 by 1 by 1 MPI processor grid
  restoring pair style lj/cut from restart
  restoring bond style harmonic from restart
  restoring angle style harmonic from restart
  15360 atoms
  14336 bonds
  13312 angles
  2 = max # of 1-2 neighbors
  2 = max # of 1-3 neighbors
  4 = max # of 1-4 neighbors
  6 = max # of special neighbors
  special bonds CPU = 0.041882 secs
  read_restart CPU = 0.0757999 secs
# this reads in latest restart file, * is wildcard for timestep


# THERMAL
timestep ${t_step}
timestep 0.005
thermo   100
thermo_style custom step time temp press pe ke etotal vol
thermo_modify norm no


# DUMP OUTPUT
dump  1  all custom 2500 output_T_${T}_time_*.dump id mol type x y z vx vy vz
dump  1  all custom 2500 output_T_0.5_time_*.dump id mol type x y z vx vy vz
# dumps all positions etc every N  steps
dump_modify 1 sort id

# FIX
fix 2 all nph iso 0.00001 0.00001 5   #reduced target pressure here
fix 3 all langevin ${T} ${T} 1 123456 #as above
fix 3 all langevin 0.5 ${T} 1 123456 
fix 3 all langevin 0.5 0.5 1 123456 
run ${mix_steps}
run 5000
Neighbor list info ...
  update every 1 steps, delay 10 steps, check yes
  max neighbors/atom: 2000, page size: 100000
  master list distance cutoff = 1.42
  ghost atom cutoff = 1.9
  binsize = 0.71, bins = 33 108 33
  1 neighbor lists, perpetual/occasional/extra = 1 0 0
  (1) pair lj/cut, perpetual
      attributes: half, newton on
      pair build: half/bin/newton
      stencil: half/bin/3d/newton
      bin: standard
Per MPI rank memory allocation (min/avg/max) = 17.77 | 17.77 | 17.77 Mbytes
Step Time Temp Press PotEng KinEng TotEng Volume 
   25000            0   0.49471648   0.10930216    10675.524    11397.526     22073.05    40760.791 
   25100          0.5   0.50141189  0.067391712    10574.666    11551.778    22126.444    41069.506 
   25200            1   0.49985297  0.085422649    10633.356    11515.863    22149.219    41670.603 
   25300          1.5    0.4991831   0.10646365    10622.026     11500.43    22122.456    42230.005 
   25400            2   0.49609403  0.094084376    10532.969    11429.262    21962.231    42809.065 
   25500          2.5   0.49640128  0.069084599    10452.766    11436.341    21889.107    43375.977 
   25600            3   0.49686948  0.075465774    10530.538    11447.128    21977.665    43894.929 
   25700          3.5   0.50081921  0.072040465    10426.577    11538.123    21964.701    44406.789 
   25800            4   0.50165127   0.10321177    10528.595    11557.293    22085.887    44857.623 
   25900          4.5   0.49722232   0.10463965    10593.611    11455.256    22048.868    45330.973 
   26000            5   0.50093982  0.046375795    10475.077    11540.902    22015.979    45874.908 
   26100          5.5   0.50135899  0.077782854    10555.965    11550.559    22106.524    46345.096 
   26200            6    0.4992843   0.08500799    10547.162    11502.761    22049.923    46817.947 
   26300          6.5    0.4981896  0.054696522    10571.532    11477.541    22049.074    47295.013 
   26400            7   0.50113349  0.048092288    10568.865    11545.364    22114.229    47756.517 
   26500          7.5   0.49983856  0.071460118    10468.973    11515.531    21984.504    48202.253 
   26600            8   0.49922091  0.073448025    10436.378    11501.301    21937.679     48680.32 
   26700          8.5    0.5028908  0.070007989    10409.786     11585.85    21995.635    49132.466 
   26800            9   0.50180825  0.057451471    10511.819    11560.909    22072.728    49609.045 
   26900          9.5   0.50353579   0.05947585    10414.759    11600.709    22015.468    50077.711 
   27000           10   0.49984676  0.049084302    10454.072     11515.72    21969.791    50517.634 
   27100         10.5   0.49798515  0.064104063    10477.734    11472.831    21950.565    50991.552 
   27200           11   0.49239063  0.083653829    10523.413    11343.941    21867.354    51449.677 
   27300         11.5   0.49144779  0.056454412    10507.534     11322.22    21829.754    51908.493 
   27400           12   0.49268859  0.033695073    10462.157    11350.806    21812.963    52381.945 
   27500         12.5   0.49764441  0.039104691    10343.246    11464.981    21808.227    52838.658 
   27600           13   0.49491486  0.033962097    10351.511    11402.096    21753.607    53297.209 
   27700         13.5   0.49455046  0.057104728    10310.359    11393.701    21704.059    53729.651 
   27800           14    0.4991757  0.060649503    10368.053    11500.259    21868.313    54143.037 
   27900         14.5   0.50090654  0.049487495    10474.442    11540.135    22014.577    54616.382 
   28000           15   0.50382299  0.040143729    10394.682    11607.326    22002.008    55067.995 
   28100         15.5   0.49971162  0.036595659    10506.449    11512.606    22019.055    55494.371 
   28200           16   0.49866067  0.040386643    10399.581    11488.394    21887.975    55951.594 
   28300         16.5   0.50231794  0.052679457    10372.937    11572.652    21945.589    56411.174 
   28400           17   0.49668236  0.050957753    10521.772    11442.817    21964.589    56876.378 
   28500         17.5   0.49967865  0.048024845    10438.835    11511.847    21950.681    57351.147 
   28600           18   0.49675732  0.054631306    10435.435    11444.544    21879.978    57849.782 
   28700         18.5    0.4963432  0.055189271    10378.266    11435.003    21813.269    58340.732 
   28800           19   0.49870082  0.045640835    10363.539    11489.319    21852.857    58822.741 
   28900         19.5   0.49555237  0.048457093    10425.555    11416.783    21842.338     59244.74 
   29000           20   0.49548795   0.04361365    10393.376    11415.299    21808.675    59691.337 
   29100         20.5   0.50003593  0.035133826    10420.011    11520.078    21940.088    60174.381 
   29200           21   0.49970929  0.035454142     10554.35    11512.552    22066.903    60646.922 
   29300         21.5   0.50087375  0.047018139    10411.625     11539.38    21951.005    61078.993 
   29400           22   0.50053567  0.050036851    10403.959    11531.591     21935.55    61546.767 
   29500         22.5   0.50333914  0.046214035    10392.866    11596.179    21989.045    62041.452 
   29600           23   0.49783633  0.026172875    10472.454    11469.402    21941.856    62555.498 
   29700         23.5   0.49769064  0.036766186    10544.004    11466.046     22010.05    63050.256 
   29800           24   0.49792981  0.031965207    10447.211    11471.556    21918.766    63479.961 
   29900         24.5   0.49186258  0.037074389    10551.512    11331.776    21883.288    63940.908 
   30000           25   0.49890551  0.039240806    10331.953    11494.035    21825.988    64410.586 
Loop time of 24.7048 on 1 procs for 5000 steps with 15360 atoms

Performance: 87432.508 tau/day, 202.390 timesteps/s
95.3% CPU use with 1 MPI tasks x 1 OpenMP threads

MPI task timing breakdown:
Section |  min time  |  avg time  |  max time  |%varavg| %total
---------------------------------------------------------------
Pair    | 2.4942     | 2.4942     | 2.4942     |   0.0 | 10.10
Bond    | 8.7865     | 8.7865     | 8.7865     |   0.0 | 35.57
Neigh   | 3.9574     | 3.9574     | 3.9574     |   0.0 | 16.02
Comm    | 0.97637    | 0.97637    | 0.97637    |   0.0 |  3.95
Output  | 0.61949    | 0.61949    | 0.61949    |   0.0 |  2.51
Modify  | 7.5473     | 7.5473     | 7.5473     |   0.0 | 30.55
Other   |            | 0.3234     |            |       |  1.31

Nlocal:    15360 ave 15360 max 15360 min
Histogram: 1 0 0 0 0 0 0 0 0 0
Nghost:    4808 ave 4808 max 4808 min
Histogram: 1 0 0 0 0 0 0 0 0 0
Neighs:    11067 ave 11067 max 11067 min
Histogram: 1 0 0 0 0 0 0 0 0 0

Total # of neighbors = 11067
Ave neighs/atom = 0.720508
Ave special neighs/atom = 5.2
Neighbor list builds = 488
Dangerous builds = 377

unfix 2
unfix 3
fix 4 all nve
fix 5 all langevin ${T} ${T} 1 123456
fix 5 all langevin 0.5 ${T} 1 123456
fix 5 all langevin 0.5 0.5 1 123456
fix recen1 all recenter INIT INIT INIT


# RUN
run ${run_steps}
run 10000
Per MPI rank memory allocation (min/avg/max) = 18.09 | 18.09 | 18.09 Mbytes
Step Time Temp Press PotEng KinEng TotEng Volume 
   30000           25   0.49890551  0.039240806    10331.953    11494.035    21825.988    64410.586 
   30100         25.5   0.49897226  0.012050614    10401.876    11495.573    21897.449    64410.586 
   30200           26    0.4990577  0.073557736     10468.24    11497.541    21965.781    64410.586 
   30300         26.5   0.50174004  0.045520963    10440.461    11559.338    21999.799    64410.586 
   30400           27   0.50154521   0.04714556    10548.754    11554.849    22103.603    64410.586 
   30500         27.5   0.50152034  0.053619271    10385.387    11554.276    21939.664    64410.586 
   30600           28   0.49801002  0.042569435    10458.223    11473.404    21931.626    64410.586 
   30700         28.5   0.50619063  0.038749547    10547.844    11661.873    22209.716    64410.586 
   30800           29    0.5089823  0.054758559    10571.843    11726.189    22298.032    64410.586 
   30900         29.5   0.50357173  0.035792133    10501.236    11601.537    22102.773    64410.586 
   31000           30   0.50077333  0.030168899     10496.08    11537.066    22033.146    64410.586 
   31100         30.5   0.50288544  0.046211409    10511.091    11585.726    22096.817    64410.586 
   31200           31   0.50381457  0.024826263    10411.616    11607.132    22018.748    64410.586 
   31300         31.5   0.49741371  0.024627253     10557.37    11459.666    22017.036    64410.586 
   31400           32   0.49751071  0.049937471    10461.809      11461.9     21923.71    64410.586 
   31500         32.5   0.49587804  0.037129054    10501.353    11424.286     21925.64    64410.586 
   31600           33   0.49806798  0.034973734    10473.425    11474.739    21948.164    64410.586 
   31700         33.5   0.50240007  0.062792721     10490.89    11574.544    22065.434    64410.586 
   31800           34     0.503664  0.029335592    10667.758    11603.663    22271.421    64410.586 
   31900         34.5   0.50886552  0.040443216    10558.845    11723.498    22282.343    64410.586 
   32000           35   0.50791092  0.037376299    10451.268    11701.506    22152.774    64410.586 
   32100         35.5   0.50348682  0.033451791    10466.969    11599.581     22066.55    64410.586 
   32200           36   0.50341411  0.034868184    10433.451    11597.906    22031.357    64410.586 
   32300         36.5   0.50384274  0.052862301    10540.538    11607.781    22148.319    64410.586 
   32400           37   0.50171872  0.038515121    10551.976    11558.847    22110.823    64410.586 
   32500         37.5   0.50490992  0.067790417    10562.579    11632.367    22194.946    64410.586 
   32600           38   0.50445821  0.026339772    10572.455    11621.961    22194.415    64410.586 
   32700         38.5   0.50483119  0.037264489    10502.629    11630.553    22133.183    64410.586 
   32800           39   0.49911898  0.049349103    10539.142    11498.953    22038.094    64410.586 
   32900         39.5   0.49920843  0.036479159    10357.362    11501.013    21858.375    64410.586 
   33000           40   0.49525476  0.039965523    10448.729    11409.927    21858.656    64410.586 
   33100         40.5    0.4975323  0.050928933    10560.564    11462.398    22022.962    64410.586 
   33200           41    0.5024504  0.025973778    10395.358    11575.704    21971.062    64410.586 
   33300         41.5   0.50116153    0.0481923    10369.114     11546.01    21915.124    64410.586 
   33400           42   0.50241425  0.044963579    10394.196    11574.871    21969.066    64410.586 
   33500         42.5   0.50430095  0.053673681    10401.396    11618.337    22019.734    64410.586 
   33600           43   0.50044556  0.015576148    10476.584    11529.515      22006.1    64410.586 
   33700         43.5   0.49767202  0.076656504    10474.698    11465.617    21940.315    64410.586 
   33800           44   0.50001137  0.031224752    10445.374    11519.512    21964.886    64410.586 
   33900         44.5   0.49548543  0.039219518    10535.504    11415.241    21950.745    64410.586 
   34000           45   0.50361703  0.041986841    10383.543    11602.581    21986.123    64410.586 
   34100         45.5   0.49862217  0.052183488    10464.904    11487.507     21952.41    64410.586 
   34200           46   0.49216719  0.051330035    10399.128    11338.794    21737.922    64410.586 
   34300         46.5    0.4938321  0.026943198    10377.252    11377.151    21754.403    64410.586 
   34400           47    0.4946435  0.040938659    10305.756    11395.844      21701.6    64410.586 
   34500         47.5   0.49618243  0.057598398    10432.541    11431.299     21863.84    64410.586 
   34600           48   0.49742994   0.01972174    10326.605     11460.04    21786.645    64410.586 
   34700         48.5   0.49622984   0.06734587    10461.173    11432.391    21893.564    64410.586 
   34800           49   0.49791292  0.032040121    10356.717    11471.167    21827.884    64410.586 
   34900         49.5   0.49773532  0.037653308    10506.257    11467.075    21973.332    64410.586 
   35000           50   0.50350798  0.063942586    10427.561    11600.069     22027.63    64410.586 
   35100         50.5    0.4994336  0.027431692    10410.706    11506.201    21916.907    64410.586 
   35200           51   0.49798448  0.047004584    10469.258    11472.815    21942.073    64410.586 
   35300         51.5   0.49984988  0.042379855    10465.019    11515.791     21980.81    64410.586 
   35400           52   0.50145354  0.034226074    10509.202    11552.737     22061.94    64410.586 
   35500         52.5   0.49959529  0.053600241    10504.338    11509.926    22014.264    64410.586 
   35600           53   0.49972592  0.029079662    10417.545    11512.936     21930.48    64410.586 
   35700         53.5   0.49727107  0.053594208    10440.413    11456.379    21896.792    64410.586 
   35800           54   0.49604545  0.052396811    10509.059    11428.143    21937.203    64410.586 
   35900         54.5   0.49981497  0.029873598    10360.453    11514.987     21875.44    64410.586 
   36000           55   0.50370691  0.050289321    10377.249    11604.652      21981.9    64410.586 
   36100         55.5   0.49788701  0.057138737    10484.264     11470.57    21954.834    64410.586 
   36200           56   0.49940034  0.033729985    10410.879    11505.435    21916.313    64410.586 
   36300         56.5   0.50233102  0.051349971    10373.676    11572.953    21946.629    64410.586 
   36400           57   0.50126966  0.045898809    10457.223    11548.501    22005.724    64410.586 
   36500         57.5   0.49843838  0.042520275    10467.793    11483.273    21951.065    64410.586 
   36600           58   0.49972452  0.041103087    10488.155    11512.903    22001.058    64410.586 
   36700         58.5   0.50530572  0.062369141    10532.086    11641.486    22173.571    64410.586 
   36800           59   0.50197193  0.039572176     10470.08     11564.68     22034.76    64410.586 
   36900         59.5   0.50312998  0.047373664    10291.481     11591.36    21882.841    64410.586 
   37000           60   0.50348616  0.061104146    10385.136    11599.566    21984.702    64410.586 
   37100         60.5   0.50329346  0.041987226     10413.89    11595.126    22009.017    64410.586 
   37200           61   0.49907639  0.057613568    10335.802    11497.971    21833.774    64410.586 
   37300         61.5   0.50040249  0.046547695    10293.402    11528.523    21821.925    64410.586 
   37400           62   0.49847238  0.035122351    10380.609    11484.056    21864.665    64410.586 
   37500         62.5   0.49968271  0.035722767    10443.781     11511.94    21955.721    64410.586 
   37600           63   0.49560425  0.035698802    10490.907    11417.979    21908.886    64410.586 
   37700         63.5   0.50316566  0.049697948    10502.315    11592.182    22094.497    64410.586 
   37800           64   0.49964765  0.054294442    10469.459    11511.132    21980.592    64410.586 
   37900         64.5   0.49899637  0.049000793    10492.768    11496.128    21988.895    64410.586 
   38000           65   0.50248877  0.024365464    10363.338    11576.587    21939.925    64410.586 
   38100         65.5   0.49819884  0.058877279    10459.844    11477.754    21937.597    64410.586 
   38200           66   0.50084112  0.022077455    10469.031    11538.628    22007.659    64410.586 
   38300         66.5   0.49914379  0.055309335    10414.743    11499.524    21914.267    64410.586 
   38400           67   0.49889935  0.049168579    10501.205    11493.893    21995.098    64410.586 
   38500         67.5   0.50432719  0.037100192    10436.783    11618.942    22055.725    64410.586 
   38600           68   0.50779898  0.053085832     10355.12    11698.927    22054.047    64410.586 
   38700         68.5    0.5033855   0.04601177    10382.356    11597.247    21979.602    64410.586 
   38800           69   0.49670498  0.028146174    10510.105    11443.338    21953.442    64410.586 
   38900         69.5   0.50025024  0.055721085    10431.962    11525.015    21956.977    64410.586 
   39000           70   0.50082068  0.023487713    10516.486    11538.157    22054.643    64410.586 
   39100         70.5   0.50045046  0.049974399    10435.302    11529.628     21964.93    64410.586 
   39200           71   0.50988869  0.069719896    10406.292    11747.071    22153.363    64410.586 
   39300         71.5   0.50556615  0.032661854    10527.736    11647.486    22175.221    64410.586 
   39400           72   0.50380552  0.044116305    10466.585    11606.923    22073.509    64410.586 
   39500         72.5   0.50028248  0.039430228    10500.026    11525.758    22025.784    64410.586 
   39600           73   0.50808974  0.042230694    10364.783    11705.625    22070.408    64410.586 
   39700         73.5    0.5016058  0.048742822    10452.461    11556.245    22008.706    64410.586 
   39800           74   0.49753551  0.035579954     10497.87    11462.472    21960.342    64410.586 
   39900         74.5   0.49846279  0.047732128    10439.755    11483.835     21923.59    64410.586 
   40000           75   0.49744176  0.064236747    10413.852    11460.312    21874.164    64410.586 
Loop time of 51.7203 on 1 procs for 10000 steps with 15360 atoms

Performance: 83526.159 tau/day, 193.348 timesteps/s
96.6% CPU use with 1 MPI tasks x 1 OpenMP threads

MPI task timing breakdown:
Section |  min time  |  avg time  |  max time  |%varavg| %total
---------------------------------------------------------------
Pair    | 4.1506     | 4.1506     | 4.1506     |   0.0 |  8.03
Bond    | 17.625     | 17.625     | 17.625     |   0.0 | 34.08
Neigh   | 9.2339     | 9.2339     | 9.2339     |   0.0 | 17.85
Comm    | 2.1185     | 2.1185     | 2.1185     |   0.0 |  4.10
Output  | 1.0227     | 1.0227     | 1.0227     |   0.0 |  1.98
Modify  | 16.809     | 16.809     | 16.809     |   0.0 | 32.50
Other   |            | 0.7608     |            |       |  1.47

Nlocal:    15360 ave 15360 max 15360 min
Histogram: 1 0 0 0 0 0 0 0 0 0
Nghost:    5002 ave 5002 max 5002 min
Histogram: 1 0 0 0 0 0 0 0 0 0
Neighs:    9356 ave 9356 max 9356 min
Histogram: 1 0 0 0 0 0 0 0 0 0

Total # of neighbors = 9356
Ave neighs/atom = 0.609115
Ave special neighs/atom = 5.2
Neighbor list builds = 888
Dangerous builds = 176
write_restart restart.time*

#This section  of codes allows looping over the list of T values
clear
OMP_NUM_THREADS environment is not set. Defaulting to 1 thread. (../comm.cpp:94)
  using 1 OpenMP thread(s) per MPI task
next mix_steps
jump in.run_loop loop  #jumps back to loop label
read_restart restart.time*
  restoring atom style molecular from restart
  orthogonal box = (-4.36259 -14.3315 -4.36259) to (22.6026 74.2515 22.6026)
  1 by 1 by 1 MPI processor grid
  restoring pair style lj/cut from restart
  restoring bond style harmonic from restart
  restoring angle style harmonic from restart
  15360 atoms
  14336 bonds
  13312 angles
  2 = max # of 1-2 neighbors
  2 = max # of 1-3 neighbors
  4 = max # of 1-4 neighbors
  6 = max # of special neighbors
  special bonds CPU = 0.0253541 secs
  read_restart CPU = 0.0514011 secs
# this reads in latest restart file, * is wildcard for timestep


# THERMAL
timestep ${t_step}
timestep 0.005
thermo   100
thermo_style custom step time temp press pe ke etotal vol
thermo_modify norm no


# DUMP OUTPUT
dump  1  all custom 2500 output_T_${T}_time_*.dump id mol type x y z vx vy vz
dump  1  all custom 2500 output_T_0.5_time_*.dump id mol type x y z vx vy vz
# dumps all positions etc every N  steps
dump_modify 1 sort id

# FIX
fix 2 all nph iso 0.00001 0.00001 5   #reduced target pressure here
fix 3 all langevin ${T} ${T} 1 123456 #as above
fix 3 all langevin 0.5 ${T} 1 123456 
fix 3 all langevin 0.5 0.5 1 123456 
run ${mix_steps}
run 10000
Neighbor list info ...
  update every 1 steps, delay 10 steps, check yes
  max neighbors/atom: 2000, page size: 100000
  master list distance cutoff = 1.42
  ghost atom cutoff = 1.9
  binsize = 0.71, bins = 38 125 38
  1 neighbor lists, perpetual/occasional/extra = 1 0 0
  (1) pair lj/cut, perpetual
      attributes: half, newton on
      pair build: half/bin/newton
      stencil: half/bin/3d/newton
      bin: standard
Per MPI rank memory allocation (min/avg/max) = 18.04 | 18.04 | 18.04 Mbytes
Step Time Temp Press PotEng KinEng TotEng Volume 
   40000            0   0.49744176  0.064236747    10413.852    11460.312    21874.164    64410.586 
   40100          0.5   0.49756165  0.031358498    10217.684    11463.074    21680.758    64710.257 
   40200            1   0.49722522 0.00094920718    10389.895    11455.323    21845.218    65369.128 
   40300          1.5   0.49966601  0.052626969    10390.078    11511.555    21901.633    66019.705 
   40400            2   0.49764824  0.035985103     10440.49    11465.069    21905.559    66693.706 
   40500          2.5   0.50275127  0.019706344    10448.553    11582.635    22031.189    67381.042 
   40600            3   0.49902915  0.037383937    10414.574    11496.883    21911.457    68036.709 
   40700          3.5   0.50670163  0.027134699    10307.791    11673.646    21981.436    68743.829 
   40800            4   0.50498342  0.035976769    10479.438    11634.061    22113.499    69429.555 
   40900          4.5   0.50113856  0.037405568    10504.068    11545.481    22049.548     70095.23 
   41000            5   0.50131642  0.017021488    10406.266    11549.578    21955.844    70703.167 
   41100          5.5   0.49850528  0.041379149    10494.012    11484.814    21978.826    71264.101 
   41200            6   0.50709068  0.027123787    10292.367    11682.609    21974.976    71836.338 
   41300          6.5   0.50665115  0.017564245    10380.443    11672.483    22052.926    72410.915 
   41400            7   0.50469568  0.029293618    10356.582    11627.431    21984.014     72967.51 
   41500          7.5   0.50026905   0.02768733    10323.723    11525.448    21849.172    73561.169 
   41600            8   0.49876217  0.033974524    10367.237    11490.732    21857.969    74132.911 
   41700          8.5   0.49626504 0.0070830158    10391.315    11433.202    21824.517     74775.42 
   41800            9    0.4999413  0.039221596    10485.685    11517.898    22003.582    75290.403 
   41900          9.5   0.49907663  0.013455126    10505.324    11497.977    22003.301    75866.375 
   42000           10   0.50599369   0.02686319    10479.729    11657.336    22137.064    76461.286 
   42100         10.5   0.50129424  0.031385513     10534.03    11549.067    22083.097    77066.333 
   42200           11   0.49970625  0.031964491    10489.026    11512.483    22001.509    77680.974 
   42300         11.5   0.50035493  0.013533278    10480.888    11527.427    22008.315    78256.075 
   42400           12   0.49874815  0.019737304    10521.413    11490.409    22011.822    78843.054 
   42500         12.5   0.49917471 0.0099238938    10392.379    11500.237    21892.616    79385.359 
   42600           13   0.50020236  0.037917255    10395.824    11523.912    21919.736    79873.051 
   42700         13.5   0.50099766  0.019501719     10464.26    11542.235    22006.495    80488.205 
   42800           14   0.49793954  0.024674039     10486.38     11471.78    21958.161    81072.929 
   42900         14.5   0.50577509  0.039637887    10393.459    11652.299    22045.759    81640.738 
   43000           15   0.50589065  0.012741281     10427.06    11654.962    22082.022    82247.754 
   43100         15.5   0.50578372  0.008823979    10475.622    11652.498     22128.12    82839.972 
   43200           16   0.50618523  0.028092163    10503.322    11661.748     22165.07    83403.141 
   43300         16.5   0.50542441  0.025118291     10456.08     11644.22    22100.301    83954.401 
   43400           17   0.50241531 0.0094571106    10379.015    11574.895     21953.91    84474.564 
   43500         17.5   0.50252531  0.013677087    10313.987    11577.429    21891.416    85051.553 
   43600           18   0.50091521  0.031069592    10332.171    11540.335    21872.506    85605.768 
   43700         18.5   0.49640325  0.018051574    10253.533    11436.386    21689.919    86184.669 
   43800           19   0.49888189 0.0092125008    10368.239     11493.49    21861.729    86795.953 
   43900         19.5   0.50407511   0.02776979    10390.496    11613.134    22003.631     87393.29 
   44000           20   0.49773958   0.02160076    10461.003    11467.173    21928.176    87992.145 
   44100         20.5   0.49959182  0.015881246    10400.282    11509.846    21910.128    88556.954 
   44200           21   0.49694621 0.0085215012    10381.351    11448.895    21830.247    89120.331 
   44300         21.5   0.49839948  0.033060984    10280.149    11482.376    21762.526    89536.292 
   44400           22   0.49960352  0.013542646    10334.251    11510.116    21844.367    90148.688 
   44500         22.5   0.50144823  0.011919657    10319.005    11552.615     21871.62    90806.207 
   44600           23   0.49810814  0.012340167    10266.761    11475.664    21742.425    91377.975 
   44700         23.5   0.49636236  0.013685739    10367.836    11435.444     21803.28    91924.087 
   44800           24   0.50092857  0.029604177     10308.02    11540.643    21848.663    92474.976 
   44900         24.5   0.50254961   0.01024335    10434.979    11577.989    22012.968    93108.444 
   45000           25   0.50029467  0.010047197    10419.778    11526.039    21945.817    93694.738 
   45100         25.5   0.49988398   0.02196851    10299.615    11516.577    21816.192    94248.975 
   45200           26   0.49906349  0.032668951    10371.633    11497.674    21869.307    94862.444 
   45300         26.5   0.49864954  0.018431539    10401.615    11488.138    21889.752    95534.045 
   45400           27   0.49922402 0.0010968559    10344.194    11501.373    21845.567    96241.555 
   45500         27.5   0.50244721  0.026046293    10483.659     11575.63     22059.29     96825.25 
   45600           28   0.50606207  0.014943812    10473.066    11658.911    22131.977    97445.214 
   45700         28.5   0.49659788 0.0060969724    10406.319     11440.87    21847.189    97995.139 
   45800           29   0.49975228  0.015249025     10291.65    11513.543    21805.193    98552.642 
   45900         29.5   0.49441345  0.012119006    10343.282    11390.544    21733.826    99168.677 
   46000           30   0.50350043    0.0174327    10314.753    11599.895    21914.648    99811.176 
   46100         30.5   0.49753324  0.023641596        10335     11462.42     21797.42    100421.33 
   46200           31   0.49779766   0.01432645    10274.411    11468.511    21742.923    101022.87 
   46300         31.5   0.49587919  0.014766607    10367.155    11424.313    21791.468    101623.68 
   46400           32   0.49722245  0.020154966    10274.157    11455.259    21729.416    102315.32 
   46500         32.5    0.4933797  0.014209068     10238.71    11366.728    21605.438    102923.73 
   46600           33   0.49717922  0.010817325    10305.719    11454.263    21759.983    103441.54 
   46700         33.5   0.49367478   0.01657846    10427.559    11373.526    21801.086    103966.29 
   46800           34   0.49599631  0.026890533    10428.463    11427.011    21855.474     104584.4 
   46900         34.5   0.49951527  0.013527002    10264.849    11508.083    21772.932    105303.71 
   47000           35    0.5027405 0.0043574098     10227.17    11582.387    21809.557    105940.47 
   47100         35.5   0.50133537 0.0087837264    10332.883    11550.015    21882.898    106420.52 
   47200           36   0.49933886  0.024404032    10317.022    11504.018    21821.041    106911.39 
   47300         36.5   0.49938105  0.011504522    10320.699     11504.99    21825.689     107581.2 
   47400           37   0.49906823 0.0041653302    10456.506    11497.783    21954.289    108154.92 
   47500         37.5   0.50056789 0.0088246247    10483.755    11532.333    22016.088     108743.6 
   47600           38   0.50221906  0.015979848    10361.436    11570.374    21931.809    109333.49 
   47700         38.5   0.50381905  0.010275821    10416.851    11607.235    22024.086    109918.02 
   47800           39   0.50647704 0.0036169746    10348.852    11668.471    22017.323    110560.89 
   47900         39.5   0.50183504  0.018136063    10381.622    11561.527    21943.149    111077.96 
   48000           40   0.49590635  0.018660501    10448.598    11424.939    21873.537    111629.26 
   48100         40.5   0.49965405 -0.0031927088    10346.802     11511.28    21858.082    112300.18 
   48200           41   0.50435621 0.0064192001    10274.371    11619.611    21893.982    112851.57 
   48300         41.5   0.49590782  0.017551198    10338.994    11424.972    21763.966     113429.6 
   48400           42   0.49375457 0.0060731108    10387.025    11375.365     21762.39    113994.51 
   48500         42.5    0.4970716 0.0086719156    10381.914    11451.784    21833.698    114650.34 
   48600           43   0.50199986  0.021607735    10344.914    11565.324    21910.238    115312.74 
   48700         43.5   0.50637742  0.013754362     10291.34    11666.176    21957.516    116041.06 
   48800           44   0.50396058 0.0086534422    10375.125    11610.496    21985.621     116689.9 
   48900         44.5   0.49970682 0.0062131345    10366.444    11512.496    21878.939    117243.33 
   49000           45   0.50445369  0.011704499    10424.708    11621.856    22046.564    117816.87 
   49100         45.5   0.50796945  0.019674967    10329.282    11702.854    22032.136    118489.83 
   49200           46   0.50348701 0.0038654211    10440.478    11599.586    22040.064    119247.82 
   49300         46.5   0.51349311 0.0092193054    10360.261    11830.111    22190.372    119879.49 
   49400           47   0.50590394  0.014387061    10387.531    11655.268    22042.799    120553.99 
   49500         47.5   0.50446696  0.007850363     10401.25    11622.162    22023.412    121208.18 
   49600           48   0.50454564  0.007792695    10462.368    11623.975    22086.343    121871.55 
   49700         48.5   0.49753192  0.019551883    10527.782    11462.389    21990.171    122437.46 
   49800           49    0.5031444  0.019407159    10435.697    11591.692    22027.389     123087.1 
   49900         49.5   0.49866654 0.0018984973    10429.321    11488.529     21917.85    123801.32 
   50000           50   0.50342429  0.013311985    10337.682    11598.141    21935.823    124385.22 
Loop time of 46.4727 on 1 procs for 10000 steps with 15360 atoms

Performance: 92957.769 tau/day, 215.180 timesteps/s
97.4% CPU use with 1 MPI tasks x 1 OpenMP threads

MPI task timing breakdown:
Section |  min time  |  avg time  |  max time  |%varavg| %total
---------------------------------------------------------------
Pair    | 3.2587     | 3.2587     | 3.2587     |   0.0 |  7.01
Bond    | 18.428     | 18.428     | 18.428     |   0.0 | 39.65
Neigh   | 6.819      | 6.819      | 6.819      |   0.0 | 14.67
Comm    | 1.5237     | 1.5237     | 1.5237     |   0.0 |  3.28
Output  | 0.57242    | 0.57242    | 0.57242    |   0.0 |  1.23
Modify  | 15.321     | 15.321     | 15.321     |   0.0 | 32.97
Other   |            | 0.5502     |            |       |  1.18

Nlocal:    15360 ave 15360 max 15360 min
Histogram: 1 0 0 0 0 0 0 0 0 0
Nghost:    3931 ave 3931 max 3931 min
Histogram: 1 0 0 0 0 0 0 0 0 0
Neighs:    3257 ave 3257 max 3257 min
Histogram: 1 0 0 0 0 0 0 0 0 0

Total # of neighbors = 3257
Ave neighs/atom = 0.212044
Ave special neighs/atom = 5.2
Neighbor list builds = 964
Dangerous builds = 636

unfix 2
unfix 3
fix 4 all nve
fix 5 all langevin ${T} ${T} 1 123456
fix 5 all langevin 0.5 ${T} 1 123456
fix 5 all langevin 0.5 0.5 1 123456
fix recen1 all recenter INIT INIT INIT


# RUN
run ${run_steps}
run 10000
Per MPI rank memory allocation (min/avg/max) = 18.9 | 18.9 | 18.9 Mbytes
Step Time Temp Press PotEng KinEng TotEng Volume 
   50000           50   0.50342429  0.013311985    10337.682    11598.141    21935.823    124385.22 
   50100         50.5   0.49715691  0.010781712     10396.24    11453.749    21849.989    124385.22 
   50200           51   0.50485978  0.014157168    10247.423    11631.212    21878.635    124385.22 
   50300         51.5   0.50504037 0.0082529517    10309.136    11635.373    21944.509    124385.22 
   50400           52   0.49793516 0.0063505304     10341.07    11471.679    21812.749    124385.22 
   50500         52.5   0.49568658  0.018650704    10286.621    11419.875    21706.496    124385.22 
   50600           53   0.50117659 -0.0048699745    10264.643    11546.357        21811    124385.22 
   50700         53.5   0.50113253  0.020843386    10267.479    11545.342    21812.821    124385.22 
   50800           54   0.49694082 0.0080799366     10343.84    11448.771    21792.611    124385.22 
   50900         54.5   0.49618419  0.011706016    10278.977    11431.339    21710.317    124385.22 
   51000           55    0.4985755  0.010740755    10410.167    11486.432    21896.599    124385.22 
   51100         55.5   0.49785251  0.002214442    10433.361    11469.775    21903.136    124385.22 
   51200           56   0.50093982  0.014160493    10455.827    11540.902    21996.729    124385.22 
   51300         56.5   0.49570555  0.020603553    10426.585    11420.312    21846.898    124385.22 
   51400           57   0.49050608  0.001801357    10389.702    11300.524    21690.227    124385.22 
   51500         57.5   0.49382563   0.01888081    10364.093    11377.002    21741.095    124385.22 
   51600           58   0.49651629 0.0062492515    10384.911    11438.991    21823.902    124385.22 
   51700         58.5   0.49781855  0.013621057    10448.842    11468.993    21917.834    124385.22 
   51800           59   0.50229106  0.015120397    10349.088    11572.033     21921.12    124385.22 
   51900         59.5   0.50018983 0.0077231379    10403.502    11523.623    21927.125    124385.22 
   52000           60   0.50278157  0.019894551    10191.993    11583.333    21775.326    124385.22 
   52100         60.5   0.50466781  0.020970441    10318.829    11626.789    21945.618    124385.22 
   52200           61   0.49689306 -0.00083162287    10246.374    11447.671    21694.045    124385.22 
   52300         61.5   0.49026262  0.012540221    10327.685    11294.915    21622.601    124385.22 
   52400           62   0.49547101 -0.0046464406    10200.166    11414.909    21615.075    124385.22 
   52500         62.5   0.49407787  0.032841683    10241.923    11382.813    21624.736    124385.22 
   52600           63   0.49767297 0.0058685019    10346.076    11465.639    21811.714    124385.22 
   52700         63.5   0.49487608 -0.010823588    10275.305    11401.203    21676.508    124385.22 
   52800           64   0.50066402  0.027525396    10247.279    11534.548    21781.827    124385.22 
   52900         64.5    0.4961761  0.015733095    10320.248    11431.153    21751.401    124385.22 
   53000           65   0.49962701  0.002029624    10241.908    11510.657    21752.565    124385.22 
   53100         65.5   0.50167843  0.032548913    10305.711    11557.918    21863.629    124385.22 
   53200           66   0.50099358 0.0096235811    10316.385    11542.141    21858.526    124385.22 
   53300         66.5   0.50041951 -0.00079906173    10400.076    11528.915    21928.991    124385.22 
   53400           67   0.50172663  0.032523284    10326.837    11559.029    21885.866    124385.22 
   53500         67.5    0.5055254 -0.0021215768    10283.769    11646.547    21930.316    124385.22 
   53600           68   0.50059392  0.016293603    10346.882    11532.933    21879.815    124385.22 
   53700         68.5    0.5004421  0.008022286    10435.895    11529.435     21965.33    124385.22 
   53800           69   0.50631301 0.0094940732    10306.533    11664.692    21971.225    124385.22 
   53900         69.5   0.50459684 0.0095491485    10275.932    11625.154    21901.086    124385.22 
   54000           70   0.50612595  0.016699059    10441.143    11660.383    22101.526    124385.22 
   54100         70.5   0.50586546 0.0070721235    10384.869    11654.381     22039.25    124385.22 
   54200           71   0.49699006  0.021909181    10410.745    11449.906     21860.65    124385.22 
   54300         71.5   0.49674629 0.00078677464    10277.682    11444.289    21721.971    124385.22 
   54400           72    0.5010548  0.013699344     10350.01    11543.551    21893.561    124385.22 
   54500         72.5   0.50003491  0.019954587    10339.633    11520.054    21859.687    124385.22 
   54600           73   0.49592083 0.0034361642    10303.929    11425.272    21729.201    124385.22 
   54700         73.5   0.49861348  0.010840505    10277.214    11487.307    21764.521    124385.22 
   54800           74   0.49560101  0.017322175    10353.654    11417.904    21771.558    124385.22 
   54900         74.5   0.50156437 -0.0004117189    10393.717    11555.291    21949.007    124385.22 
   55000           75   0.49995092  0.015992679    10326.089    11518.119    21844.209    124385.22 
   55100         75.5   0.50275999  0.013481683    10316.845    11582.836    21899.681    124385.22 
   55200           76   0.50214395 -0.0016946854    10319.741    11568.643    21888.384    124385.22 
   55300         76.5   0.50010435  0.020439597    10385.395    11521.654    21907.049    124385.22 
   55400           77   0.50039568  0.012680153    10444.332    11528.366    21972.698    124385.22 
   55500         77.5   0.50184844 0.0078685791    10347.312    11561.835    21909.147    124385.22 
   55600           78   0.50205727  0.017434982    10431.833    11566.646    21998.479    124385.22 
   55700         78.5   0.49809957 0.0053047555    10413.705    11475.467    21889.172    124385.22 
   55800           79   0.49453503 -0.0026605388    10445.656    11393.345    21839.002    124385.22 
   55900         79.5   0.49836526  0.026836018    10289.477    11481.588    21771.065    124385.22 
   56000           80   0.49480539 -0.00078498935    10387.319    11399.574    21786.893    124385.22 
   56100         80.5   0.49602084  0.011140286    10356.747    11427.576    21784.323    124385.22 
   56200           81   0.49822454  0.016172383    10477.406    11478.346    21955.752    124385.22 
   56300         81.5   0.49696638 0.0060131443    10433.144     11449.36    21882.504    124385.22 
   56400           82   0.49988024  0.011029697    10338.165    11516.491    21854.656    124385.22 
   56500         82.5   0.50189465  0.020765738    10378.241      11562.9    21941.141    124385.22 
   56600           83   0.50337765  0.003599104    10375.465    11597.066    21972.531    124385.22 
   56700         83.5   0.50042091 0.0052069346    10407.126    11528.947    21936.073    124385.22 
   56800           84   0.49916099  0.024638684    10386.476     11499.92    21886.396    124385.22 
   56900         84.5   0.49988423  0.013612278    10356.708    11516.583    21873.291    124385.22 
   57000           85   0.49593723  0.010354488    10230.942     11425.65    21656.592    124385.22 
   57100         85.5   0.49544514   0.02020104    10328.825    11414.313    21743.138    124385.22 
   57200           86   0.49742557  0.012538912    10344.899    11459.939    21804.837    124385.22 
   57300         86.5   0.50088296 -0.0015171174      10411.7    11539.592    21951.293    124385.22 
   57400           87   0.50058056  0.013325753    10357.565    11532.625     21890.19    124385.22 
   57500         87.5   0.49965744  0.016282301    10324.434    11511.358    21835.792    124385.22 
   57600           88   0.49827718 0.0064278875    10318.405    11479.559    21797.964    124385.22 
   57700         88.5   0.50138464  0.012510395    10322.001     11551.15    21873.151    124385.22 
   57800           89   0.50290287  0.018044382    10380.812    11586.128     21966.94    124385.22 
   57900         89.5   0.50329681 -0.010659226    10298.525    11595.204    21893.729    124385.22 
   58000           90   0.49871967  0.024678408    10330.359    11489.753    21820.112    124385.22 
   58100         90.5   0.50140838 0.0059400913    10373.324    11551.697    21925.021    124385.22 
   58200           91   0.50172379  0.005175669    10267.748    11558.964    21826.711    124385.22 
   58300         91.5   0.50450837  0.021963911    10277.482    11623.116    21900.598    124385.22 
   58400           92   0.49996631  0.010623689    10325.201    11518.474    21843.675    124385.22 
   58500         92.5   0.49840133 0.00027490126    10363.152    11482.419    21845.571    124385.22 
   58600           93   0.50321455 0.0096114622    10350.944    11593.308    21944.252    124385.22 
   58700         93.5   0.50337113   0.00908384    10381.026    11596.916    21977.942    124385.22 
   58800           94   0.50084417  0.015571891    10322.279    11538.698    21860.978    124385.22 
   58900         94.5   0.49798892  0.010818983    10377.994    11472.918    21850.912    124385.22 
   59000           95   0.49749286  0.012760961    10327.944    11461.489    21789.434    124385.22 
   59100         95.5   0.49658456  0.010107796    10387.058    11440.563    21827.621    124385.22 
   59200           96   0.50275958  0.018205254    10308.945    11582.827    21891.771    124385.22 
   59300         96.5   0.50249056 -0.0019405068    10341.655    11576.629    21918.284    124385.22 
   59400           97   0.50059464  0.016709074    10445.214     11532.95    21978.164    124385.22 
   59500         97.5   0.49781962  0.014520788     10428.93    11469.017    21897.947    124385.22 
   59600           98   0.49742623 0.0020440248    10311.655    11459.954     21771.61    124385.22 
   59700         98.5    0.4988584  0.019729679    10386.714    11492.949    21879.664    124385.22 
   59800           99   0.49647675  0.012935249    10459.498     11438.08    21897.577    124385.22 
   59900         99.5   0.49483685  0.020234633    10385.377    11400.299    21785.676    124385.22 
   60000          100   0.50065293  0.012333124    10330.782    11534.293    21865.074    124385.22 
Loop time of 29.2426 on 1 procs for 10000 steps with 15360 atoms

Performance: 147729.657 tau/day, 341.967 timesteps/s
98.7% CPU use with 1 MPI tasks x 1 OpenMP threads

MPI task timing breakdown:
Section |  min time  |  avg time  |  max time  |%varavg| %total
---------------------------------------------------------------
[...]
  813500       2467.5    0.5048828 2.2620142e-05    10298.657    11631.742      21930.4     30254631 
  813600         2468   0.50192034 1.3808466e-05    10310.187    11563.492    21873.679     30306728 
  813700       2468.5   0.50311673 2.0962324e-05    10389.061    11591.055    21980.116     30390192 
  813800         2469   0.50254725 6.7246194e-08     10405.63    11577.935    21983.564     30476527 
  813900       2469.5   0.49645034 1.3838362e-05    10376.759    11437.471    21814.231     30550040 
  814000         2470   0.49651066 -4.5967078e-07    10250.749    11438.861     21689.61     30623659 
  814100       2470.5   0.49596581 2.8067408e-05    10143.413    11426.308    21569.722     30694760 
  814200         2471   0.49864382 2.4323815e-05    10263.592    11488.006    21751.597     30774463 
  814300       2471.5   0.49874622 -2.5382987e-06    10221.619    11490.365    21711.984     30833850 
  814400         2472    0.4997262 2.3992024e-05    10232.067    11512.942    21745.009     30868982 
  814500       2472.5   0.50145827 3.0729413e-05    10234.017    11552.846    21786.863     30915655 
  814600         2473   0.50152947 2.4071549e-06    10176.509    11554.487    21730.996     30970460 
  814700       2473.5   0.50298559 -7.4743168e-06    10302.439    11588.034    21890.472     31034929 
  814800         2474   0.50387582 -6.0785086e-07    10326.362    11608.543    21934.905     31088193 
  814900       2474.5     0.504159 4.1723628e-05    10363.834    11615.067    21978.901     31115587 
  815000         2475   0.50682893 3.3561917e-05    10325.583    11676.578    22002.162     31170805 
  815100       2475.5   0.50752094 -5.0820207e-05     10342.05    11692.521    22034.571     31272640 
  815200         2476   0.50093842 1.0120811e-05    10287.229     11540.87    21828.099     31322125 
  815300       2476.5   0.49970744 4.2009189e-05    10373.167     11512.51    21885.677     31366329 
  815400         2477   0.50489125 -1.702197e-05     10447.45    11631.937    22079.387     31403330 
  815500       2477.5   0.50894082 -2.3469065e-05    10364.433    11725.233    22089.666     31388117 
  815600         2478   0.50556049 3.5717357e-05    10444.193    11647.355    22091.549     31351319 
  815700       2478.5   0.50101924 -1.7528937e-05    10458.841    11542.732    22001.573     31355715 
  815800         2479   0.49845226 -2.3806149e-07    10354.783    11483.592    21838.376     31338349 
  815900       2479.5   0.50283048 4.7331856e-05    10461.976     11584.46    22046.436     31316529 
  816000         2480   0.49701179 2.1383351e-05    10381.323    11450.406    21831.729     31297294 
  816100       2480.5   0.50002186 -1.4502426e-05    10327.751    11519.754    21847.504     31322836 
  816200         2481   0.50356287 3.2652391e-05    10390.541    11601.333    21991.875     31345417 
  816300       2481.5   0.50381813 -5.9159111e-07    10327.361    11607.214    21934.575     31395336 
  816400         2482   0.50454409 -2.4257277e-05    10282.364    11623.939    21906.303     31456180 
  816500       2482.5   0.49769546 3.1419217e-05    10382.082    11466.157    21848.239     31504160 
  816600         2483   0.49810183 -6.7329292e-06    10275.033    11475.519    21750.552     31572399 
  816700       2483.5   0.50209337 6.8925393e-06    10341.454    11567.478    21908.932     31623422 
  816800         2484   0.49893676 4.6231302e-06    10274.351    11494.755    21769.105     31660050 
  816900       2484.5   0.50086218 2.7561855e-05    10207.464    11539.113    21746.577     31696470 
  817000         2485   0.50095663 -1.245244e-05    10149.391    11541.289    21690.681     31766239 
  817100       2485.5   0.49996496 2.050143e-05    10269.101    11518.443    21787.544     31842868 
  817200         2486   0.49904012 -1.6254802e-06    10269.191    11497.136    21766.327     31919159 
  817300       2486.5   0.49915159 1.115547e-05    10219.264    11499.704    21718.968     31949189 
  817400         2487   0.49897008 3.3961436e-05    10188.949    11495.522    21684.471     31987316 
  817500       2487.5   0.49399294 1.4387779e-05    10203.545    11380.856    21584.401     32062419 
  817600         2488   0.49466142 -9.6029721e-06    10306.185    11396.257    21702.442     32112412 
  817700       2488.5   0.49394581 -3.194381e-05    10299.499    11379.771    21679.269     32157765 
  817800         2489    0.5012312 2.2133076e-05    10196.105    11547.615     21743.72     32147099 
  817900       2489.5   0.50252053 7.9412057e-06    10214.696    11577.319    21792.015     32125117 
  818000         2490   0.50513675 -3.1188165e-05    10284.471    11637.593    21922.064     32118328 
  818100       2490.5   0.50509104 1.1699299e-05    10216.585     11636.54    21853.125     32113517 
  818200         2491   0.50131717 3.6641841e-06    10360.578    11549.596    21910.173     32085509 
  818300       2491.5   0.50665677 1.442421e-05    10344.563    11672.612    22017.175     32069077 
  818400         2492   0.50252297 4.761861e-05    10403.276    11577.375    21980.652     32077110 
  818500       2492.5    0.5012673 1.3090127e-05    10510.179    11548.447    22058.625     32095234 
  818600         2493   0.50324989 1.199482e-05    10358.359    11594.123    21952.481     32117732 
  818700       2493.5   0.49768305 2.8404613e-05    10326.843    11465.871    21792.714     32131324 
  818800         2494   0.49795083 4.9670616e-06    10205.153     11472.04    21677.193     32171774 
  818900       2494.5   0.49846635 5.1797585e-06    10169.055    11483.917    21652.972     32221955 
  819000         2495    0.5007349 1.1885723e-05    10124.769    11536.181     21660.95     32266440 
  819100       2495.5   0.49553797 -1.5968014e-05    10311.677    11416.451    21728.129     32309330 
  819200         2496   0.49215659 7.2633125e-06    10233.194     11338.55    21571.743     32293935 
  819300       2496.5    0.4936496 4.9392322e-05    10272.611    11372.946    21645.557     32236585 
  819400         2497    0.4986426 1.0867782e-05    10193.934    11487.978    21681.912     32243668 
  819500       2497.5   0.49884153 6.4991228e-06    10255.883    11492.561    21748.444     32255645 
  819600         2498   0.49873504 2.6305287e-05    10280.996    11490.107    21771.104     32239697 
  819700       2498.5   0.50206444 -1.7888465e-05    10239.456    11566.812    21806.268     32238256 
  819800         2499   0.49543605 1.7367893e-05    10306.103    11414.103    21720.207     32224842 
  819900       2499.5   0.49420913 1.222428e-05    10234.996    11385.837    21620.833     32282844 
  820000         2500    0.4987735 1.2496043e-06    10240.158    11490.993    21731.151     32328740 
Loop time of 4117.5 on 1 procs for 500000 steps with 15360 atoms

Performance: 52458.982 tau/day, 121.433 timesteps/s
99.1% CPU use with 1 MPI tasks x 1 OpenMP threads

MPI task timing breakdown:
Section |  min time  |  avg time  |  max time  |%varavg| %total
---------------------------------------------------------------
Pair    | 44.983     | 44.983     | 44.983     |   0.0 |  1.09
Bond    | 587.37     | 587.37     | 587.37     |   0.0 | 14.27
Neigh   | 2886.9     | 2886.9     | 2886.9     |   0.0 | 70.11
Comm    | 67.258     | 67.258     | 67.258     |   0.0 |  1.63
Output  | 34.166     | 34.166     | 34.166     |   0.0 |  0.83
Modify  | 484.66     | 484.66     | 484.66     |   0.0 | 11.77
Other   |            | 12.2       |            |       |  0.30

Nlocal:    15360 ave 15360 max 15360 min
Histogram: 1 0 0 0 0 0 0 0 0 0
Nghost:    525 ave 525 max 525 min
Histogram: 1 0 0 0 0 0 0 0 0 0
Neighs:    4 ave 4 max 4 min
Histogram: 1 0 0 0 0 0 0 0 0 0

Total # of neighbors = 4
Ave neighs/atom = 0.000260417
Ave special neighs/atom = 5.2
Neighbor list builds = 47997
Dangerous builds = 31927

unfix 2
unfix 3
fix 4 all nve
fix 5 all langevin ${T} ${T} 1 123456
fix 5 all langevin 0.5 ${T} 1 123456
fix 5 all langevin 0.5 0.5 1 123456
fix recen1 all recenter INIT INIT INIT


# RUN
run ${run_steps}
run 10000
Per MPI rank memory allocation (min/avg/max) = 388.2 | 388.2 | 388.2 Mbytes
Step Time Temp Press PotEng KinEng TotEng Volume 
  820000         2500    0.4987735 1.2496043e-06    10240.158    11490.993    21731.151     32328740 
  820100       2500.5   0.50490165 -2.1648199e-05    10138.879    11632.177    21771.055     32328740 
  820200         2501   0.50013504 2.2381916e-05    10336.193    11522.361    21858.555     32328740 
  820300       2501.5   0.50505833 4.9732282e-05    10243.962    11635.786    21879.749     32328740 
  820400         2502   0.49980653 -6.8528051e-07    10353.208    11514.793    21868.001     32328740 
  820500       2502.5    0.5020059 1.6068792e-05    10333.448    11565.463    21898.911     32328740 
  820600         2503   0.50618251 4.2913276e-06     10307.95    11661.686    21969.636     32328740 
  820700       2503.5   0.49921527 5.6064986e-06    10376.664    11501.171    21877.835     32328740 
  820800         2504   0.50280751 -3.0932499e-05    10369.442    11583.931    21953.373     32328740 
  820900       2504.5   0.50714813 -1.0346399e-05    10288.413    11683.932    21972.345     32328740 
  821000         2505   0.50770631 1.0659399e-05    10281.123    11696.792    21977.915     32328740 
  821100       2505.5   0.50393901 1.5383298e-05    10275.754    11609.999    21885.753     32328740 
  821200         2506   0.50020079 2.9368646e-05    10205.822    11523.876    21729.698     32328740 
  821300       2506.5   0.49809773 1.9046372e-05     10277.47    11475.424    21752.895     32328740 
  821400         2507   0.49752535 3.718992e-06    10354.384    11462.238    21816.621     32328740 
  821500       2507.5   0.49590387 -3.317304e-06    10318.288    11424.881     21743.17     32328740 
  821600         2508    0.5073304 1.8784604e-05    10267.123    11688.131    21955.255     32328740 
  821700       2508.5   0.49919033 -1.8348731e-05    10311.121    11500.596    21811.717     32328740 
  821800         2509   0.49878346 1.6974702e-05    10272.746    11491.223    21763.969     32328740 
  821900       2509.5   0.50223441 3.1312084e-05    10288.621    11570.727    21859.348     32328740 
  822000         2510   0.49977763 -1.1378193e-05     10231.37    11514.127    21745.497     32328740 
  822100       2510.5   0.49977731 1.3042488e-05     10264.27     11514.12     21778.39     32328740 
  822200         2511   0.50205984 3.3127085e-05    10229.846    11566.706    21796.552     32328740 
  822300       2511.5   0.50167252 -1.7813576e-05    10217.898    11557.782     21775.68     32328740 
  822400         2512   0.50074132 -2.1824601e-05    10282.428    11536.329    21818.757     32328740 
  822500       2512.5   0.50394419 2.4550734e-05    10280.963    11610.118    21891.082     32328740 
  822600         2513   0.50334234 2.0456673e-05    10370.942    11596.252    21967.195     32328740 
  822700       2513.5    0.5023838 -5.7259641e-06    10422.173    11574.169    21996.343     32328740 
  822800         2514   0.50592214 -1.541234e-05    10434.802    11655.687    22090.489     32328740 
  822900       2514.5   0.50449808 2.7804623e-05    10402.442    11622.879    22025.321     32328740 
  823000         2515   0.50563008 1.9728336e-05    10242.014    11648.959    21890.972     32328740 
  823100       2515.5   0.50301096 -1.7405477e-05    10553.417    11588.618    22142.035     32328740 
  823200         2516   0.50464955 5.447263e-05    10478.596    11626.369    22104.965     32328740 
  823300       2516.5   0.50705027 -3.3867432e-05     10451.65    11681.678    22133.328     32328740 
  823400         2517   0.50693467 2.4265318e-05     10319.98    11679.014    21998.995     32328740 
  823500       2517.5    0.5049927  5.39931e-05    10218.405    11634.274    21852.679     32328740 
  823600         2518   0.49621803 -1.8211107e-06    10355.249    11432.119    21787.368     32328740 
  823700       2518.5   0.50295059 -1.787224e-05    10218.285    11587.227    21805.512     32328740 
  823800         2519    0.4967558 5.0486731e-06    10375.351    11444.508    21819.859     32328740 
  823900       2519.5   0.49973993 -2.0693178e-06    10355.244    11513.258    21868.502     32328740 
  824000         2520   0.50346299 3.3443965e-05    10307.556    11599.032    21906.588     32328740 
  824100       2520.5   0.49946323 3.237144e-05    10252.597    11506.884    21759.481     32328740 
  824200         2521   0.50684052 -2.7498634e-05    10225.297    11676.845    21902.142     32328740 
  824300       2521.5   0.50213001 2.9608711e-05    10280.929    11568.322    21849.251     32328740 
  824400         2522   0.50234773 1.0861712e-05    10355.281    11573.338    21928.619     32328740 
  824500       2522.5   0.50119899 3.3911077e-05    10241.716    11546.873    21788.589     32328740 
  824600         2523   0.49847916 -3.0169446e-06    10244.493    11484.212    21728.705     32328740 
  824700       2523.5   0.50051436 8.1744154e-06      10289.1      11531.1      21820.2     32328740 
  824800         2524   0.49830605 9.8980087e-06    10291.354    11480.224    21771.578     32328740 
  824900       2524.5   0.49813626 2.7746932e-05    10233.384    11476.312    21709.696     32328740 
  825000         2525   0.49356276 -1.7973244e-06    10302.298    11370.946    21673.244     32328740 
  825100       2525.5   0.49881655 4.5408039e-06    10222.221    11491.985    21714.206     32328740 
  825200         2526   0.49954996 1.0170208e-05    10263.075    11508.882    21771.956     32328740 
  825300       2526.5   0.49990305 -1.1365159e-05    10258.142    11517.016    21775.158     32328740 
  825400         2527   0.50103019 -1.0956352e-06    10289.142    11542.984    21832.126     32328740 
  825500       2527.5   0.50411627 1.8294404e-05    10299.903    11614.083    21913.986     32328740 
  825600         2528   0.50406179 4.5348824e-07    10337.214    11612.828    21950.042     32328740 
  825700       2528.5    0.5044292 3.716011e-05    10393.768    11621.292     22015.06     32328740 
  825800         2529   0.49226371 -3.0999247e-05    10347.446    11341.017    21688.463     32328740 
  825900       2529.5   0.49844367 -1.4563588e-05    10206.172    11483.395    21689.567     32328740 
  826000         2530   0.50685629  3.39551e-05    10171.392    11677.209      21848.6     32328740 
  826100       2530.5   0.49433894 8.9215718e-06    10336.963    11388.828    21725.791     32328740 
  826200         2531   0.49494028 8.4541743e-06    10401.833    11402.682    21804.515     32328740 
  826300       2531.5   0.49750937 6.2105533e-05    10207.831     11461.87      21669.7     32328740 
  826400         2532   0.49432241 -1.4070801e-05    10246.474    11388.447     21634.92     32328740 
  826500       2532.5   0.50050494 2.1675244e-05    10159.627    11530.883     21690.51     32328740 
  826600         2533   0.49449663 2.8411359e-05     10255.83    11392.461     21648.29     32328740 
  826700       2533.5   0.49862477 7.0613486e-06     10291.63    11487.567    21779.197     32328740 
  826800         2534   0.50097412 1.2774899e-06    10308.573    11541.692    21850.266     32328740 
  826900       2534.5   0.49643658 3.5558994e-06    10240.526    11437.154     21677.68     32328740 
  827000         2535   0.49898484 3.4043084e-05    10302.095    11495.862    21797.958     32328740 
  827100       2535.5   0.50077212 -3.1759845e-06    10245.063    11537.038    21782.101     32328740 
  827200         2536   0.49839651 -7.8169977e-07    10346.414    11482.308    21828.722     32328740 
  827300       2536.5   0.50148375 4.4960004e-05    10238.498    11553.433    21791.932     32328740 
  827400         2537   0.49387274 -1.5582189e-05    10429.659    11378.087    21807.746     32328740 
  827500       2537.5    0.5014705 3.1192845e-05    10333.692    11553.128     21886.82     32328740 
  827600         2538   0.49927532 -2.6022326e-05    10286.237    11502.554    21788.791     32328740 
  827700       2538.5   0.49402911 1.3311506e-05    10375.354     11381.69    21757.043     32328740 
  827800         2539   0.50543495 -1.2272647e-06    10294.013    11644.463    21938.476     32328740 
  827900       2539.5   0.49843026 1.0088272e-06    10392.839    11483.085    21875.924     32328740 
  828000         2540   0.49882854 4.245653e-05    10280.111    11492.261    21772.372     32328740 
  828100       2540.5   0.49722623 7.2686585e-06    10391.582    11455.347    21846.928     32328740 
  828200         2541   0.49694506 -5.5624635e-06    10276.057    11448.869    21724.926     32328740 
  828300       2541.5   0.49761066 7.8882216e-06    10311.297    11464.203    21775.501     32328740 
  828400         2542   0.49593942 1.6013604e-05    10306.822      11425.7    21732.523     32328740 
  828500       2542.5   0.49575976 -1.0787332e-05    10351.571    11421.561    21773.133     32328740 
  828600         2543   0.50425406 3.4398598e-05    10301.218    11617.257    21918.475     32328740 
  828700       2543.5   0.50785996 6.5816591e-06    10237.493    11700.332    21937.825     32328740 
  828800         2544   0.49988359 5.3049578e-06    10361.311    11516.568    21877.879     32328740 
  828900       2544.5   0.50060754 3.5535895e-05    10444.867    11533.247    21978.114     32328740 
  829000         2545    0.5087809 -2.2054204e-05    10328.033    11721.549    22049.581     32328740 
  829100       2545.5   0.49856436 3.6664201e-05    10479.991    11486.175    21966.166     32328740 
  829200         2546   0.50246279 2.1618405e-05    10397.435    11575.989    21973.424     32328740 
  829300       2546.5   0.50492086 -4.5776937e-06    10289.114    11632.619    21921.733     32328740 
  829400         2547   0.50487638 6.8779502e-06    10286.382    11631.595    21917.977     32328740 
  829500       2547.5   0.50124122 2.9236744e-06    10303.669    11547.846    21851.515     32328740 
  829600         2548   0.49561884  1.53934e-05    10278.886    11418.315      21697.2     32328740 
  829700       2548.5   0.49901419 -6.5854663e-06    10243.738    11496.539    21740.276     32328740 
  829800         2549   0.50035923 2.3966175e-05    10297.484    11527.526     21825.01     32328740 
  829900       2549.5   0.49917201 1.4483252e-05     10364.31    11500.174    21864.484     32328740 
  830000         2550    0.4988657 -9.7188275e-06    10329.209    11493.117    21822.327     32328740 
Loop time of 74.1792 on 1 procs for 10000 steps with 15360 atoms

Performance: 58237.328 tau/day, 134.809 timesteps/s
99.5% CPU use with 1 MPI tasks x 1 OpenMP threads

MPI task timing breakdown:
Section |  min time  |  avg time  |  max time  |%varavg| %total
---------------------------------------------------------------
Pair    | 0.39104    | 0.39104    | 0.39104    |   0.0 |  0.53
Bond    | 7.9871     | 7.9871     | 7.9871     |   0.0 | 10.77
Neigh   | 55.484     | 55.484     | 55.484     |   0.0 | 74.80
Comm    | 1.1808     | 1.1808     | 1.1808     |   0.0 |  1.59
Output  | 0.60283    | 0.60283    | 0.60283    |   0.0 |  0.81
Modify  | 8.2459     | 8.2459     | 8.2459     |   0.0 | 11.12
Other   |            | 0.2873     |            |       |  0.39

Nlocal:    15360 ave 15360 max 15360 min
Histogram: 1 0 0 0 0 0 0 0 0 0
Nghost:    500 ave 500 max 500 min
Histogram: 1 0 0 0 0 0 0 0 0 0
Neighs:    9 ave 9 max 9 min
Histogram: 1 0 0 0 0 0 0 0 0 0

Total # of neighbors = 9
Ave neighs/atom = 0.000585937
Ave special neighs/atom = 5.2
Neighbor list builds = 886
Dangerous builds = 174
write_restart restart.time*

#This section  of codes allows looping over the list of T values
clear
OMP_NUM_THREADS environment is not set. Defaulting to 1 thread. (../comm.cpp:94)
  using 1 OpenMP thread(s) per MPI task
next mix_steps
jump in.run_loop loop  #jumps back to loop label

Total wall time: 1:38:08
