LAMMPS (3 Mar 2020)
OMP_NUM_THREADS environment is not set. Defaulting to 1 thread. (../comm.cpp:94)
  using 1 OpenMP thread(s) per MPI task
#run with lmp_serial -pk omp 8 -sf omp -in in.run_loop

#SETUP
# Runs on the first loop only
shell del *.dump     # delete all dump files before first run CAREFUL WITH THIS
shell del restart.time*     # delete all current restart files before first run
shell lmp_serial -in in.run_setup     # first run of file, generate first restart file

#VARIABLES
variable N         equal  500  #MUST BE SAME AS SETUP FILE FOR PHASEPLOT
variable len       equal  15
variable T         equal  0.5
variable t_step    equal  0.005 #originally 0.005
variable mix_steps index  10000 20000 30000 50000 50000 100000
variable mix_tau   equal  ${t_step}*${mix_steps}
variable mix_tau   equal  0.005*${mix_steps}
variable mix_tau   equal  0.005*10000
variable run_steps equal  10000 #00 # steps to run simulation in order to reach steady state
variable run_tau   equal  ${t_step}*${run_steps} # this is the time in LJ units
variable run_tau   equal  0.005*${run_steps} 
variable run_tau   equal  0.005*10000 
#1000 particles averages 35,000 steps per minute

#LOOP START
label loop  #start loop from here
read_restart restart.time*
  restoring atom style molecular from restart
  orthogonal box = (-50.0486 -50.0486 -50.0486) to (50.0486 50.0486 50.0486)
  1 by 1 by 1 MPI processor grid
  restoring pair style lj/cut from restart
  restoring bond style harmonic from restart
  restoring angle style harmonic from restart
  7500 atoms
  7000 bonds
  6500 angles
  2 = max # of 1-2 neighbors
  2 = max # of 1-3 neighbors
  4 = max # of 1-4 neighbors
  6 = max # of special neighbors
  special bonds CPU = 0.00698113 secs
  read_restart CPU = 0.021683 secs
# this reads in latest restart file, * is wildcard for timestep


# THERMAL
timestep ${t_step}
timestep 0.005
thermo   100
thermo_style custom step time temp press pe ke etotal vol
thermo_modify norm no


# DUMP OUTPUT
dump  1  all custom 5000 output_T_${T}_time_*.dump id mol type x y z vx vy vz
dump  1  all custom 5000 output_T_0.5_time_*.dump id mol type x y z vx vy vz
# dumps all positions etc every N  steps
dump_modify 1 sort id

# FIX
fix 2 all nph iso 0.0000001 0.0000001 10   #reduced target pressure here
fix 3 all langevin ${T} ${T} 1 123456 #as above
fix 3 all langevin 0.5 ${T} 1 123456 
fix 3 all langevin 0.5 0.5 1 123456 
run ${mix_steps}
run 10000
Neighbor list info ...
  update every 1 steps, delay 10 steps, check yes
  max neighbors/atom: 2000, page size: 100000
  master list distance cutoff = 1.42
  ghost atom cutoff = 1.9
  binsize = 0.71, bins = 141 141 141
  1 neighbor lists, perpetual/occasional/extra = 1 0 0
  (1) pair lj/cut, perpetual
      attributes: half, newton on
      pair build: half/bin/newton
      stencil: half/bin/3d/newton
      bin: standard
Per MPI rank memory allocation (min/avg/max) = 21.59 | 21.59 | 21.59 Mbytes
Step Time Temp Press PotEng KinEng TotEng Volume 
       0            0   0.49105909 9.3062661e-05    5039.2264    5523.6782    10562.905      1002918 
     100          0.5    0.4896509 -0.00014514483    5117.6481    5507.8381    10625.486    1003572.1 
     200            1   0.48757982  0.001232814    5202.4944    5484.5416    10687.036      1003988 
     300          1.5    0.4908422 -0.0021016586    5230.4152    5521.2385    10751.654    1005659.1 
     400            2   0.49380916 0.0018630679    5221.6706    5554.6123    10776.283    1006326.4 
     500          2.5   0.50080241 -0.0017106036    5216.4063     5633.276    10849.682      1008155 
     600            3   0.50226124 0.0010407161     5137.374    5649.6855     10787.06    1008872.4 
     700          3.5   0.49319979 -0.00011667262    5133.2296    5547.7579    10680.988    1010134.5 
     800            4   0.49697082 -0.00063867188    5126.0215    5590.1763    10716.198    1011176.6 
     900          4.5   0.49762893 0.00093693891    5090.1044    5597.5791    10687.683    1012251.9 
    1000            5   0.48935575 -0.00079487235    5073.9803    5504.5182    10578.499    1013932.7 
    1100          5.5   0.49483021 0.00055177579    5113.5052    5566.0976    10679.603    1014735.2 
    1200            6   0.49993366 -8.6215863e-05    5083.8219    5623.5037    10707.326    1016041.3 
    1300          6.5   0.49431514 0.00068972093    5171.5908    5560.3038    10731.895    1017587.4 
    1400            7    0.4991132 -0.00073709983     5131.701    5614.2749    10745.976    1019536.1 
    1500          7.5   0.49486036 0.00073404013    5174.2538    5566.4367     10740.69    1021219.9 
    1600            8   0.49808092 -0.0016968888    5169.6767    5602.6632     10772.34    1023258.9 
    1700          8.5   0.50038751 0.0013790202    5162.7399    5628.6089    10791.349    1024099.7 
    1800            9   0.49710076 -0.00095411331    5239.6765     5591.638    10831.314    1026100.1 
    1900          9.5   0.49490909 4.3228072e-05    5202.7218     5566.985    10769.707    1027275.1 
    2000           10   0.49921274 0.00029241386    5161.1896    5615.3945    10776.584    1028391.8 
    2100         10.5   0.50293547 4.2634792e-05    5108.2233    5657.2696    10765.493    1029601.2 
    2200           11    0.5015926 0.00033311942    5229.4235    5642.1644    10871.588    1031009.5 
    2300         11.5   0.49886305 -0.00030417238    5224.4201     5611.461    10835.881    1032974.1 
    2400           12   0.50308137 -0.00017360088    5168.0653    5658.9108    10826.976    1034908.6 
    2500         12.5   0.49788679 -0.00029826762    5226.3029    5600.4796    10826.783      1036791 
    2600           13   0.49804159 0.00098763941    5208.6366    5602.2208    10810.857    1038297.5 
    2700         13.5   0.50356265 -0.00076122008    5144.9331    5664.3245    10809.258      1040358 
    2800           14   0.50109093 0.00076666125    5262.0997    5636.5213    10898.621    1041711.5 
    2900         14.5   0.50804711 -0.00015654843    5197.9277    5714.7679    10912.696    1043556.7 
    3000           15   0.50107094 0.00019599724    5185.1167    5636.2964    10821.413    1045250.6 
    3100         15.5    0.5022015 0.00065882188    5126.1629    5649.0136    10775.177    1046813.8 
    3200           16   0.49283773 -0.00015041926    5254.2115    5543.6852    10797.897    1048647.2 
    3300         16.5   0.50389755 -0.00053018062    5175.7902    5668.0916    10843.882    1050281.2 
    3400           17   0.50193335 0.0012823595    5222.5342    5645.9973    10868.531    1051767.9 
    3500         17.5   0.49964678 -0.00053350345    5172.3867    5620.2768    10792.664    1054421.5 
    3600           18   0.49486704 0.0010213307    5169.9921    5566.5119    10736.504    1056805.8 
    3700         18.5   0.49820319 -0.00032378387      5186.12    5604.0385    10790.159    1059746.2 
    3800           19   0.50733133 0.00093867506    5150.5237    5706.7165     10857.24    1062173.6 
    3900         19.5   0.50448464 -0.00025761128    5161.4126    5674.6955    10836.108      1065472 
    4000           20   0.50175726 8.8429106e-05    5175.0246    5644.0166    10819.041    1068610.3 
    4100         20.5    0.4993322 -6.3948416e-06    5211.9958    5616.7382    10828.734    1071479.7 
    4200           21   0.49870188 -0.00019356181    5178.4972    5609.6481    10788.145    1074210.4 
    4300         21.5   0.50369606 0.00038063864    5163.7116    5665.8251    10829.537      1076739 
    4400           22   0.50589714 -0.00072417942    5119.4834     5690.584    10810.067    1079384.4 
    4500         22.5   0.50082337 0.00048616577    5113.5838    5633.5117    10747.096    1081212.9 
    4600           23   0.50433728 -0.00050457452    5079.5212    5673.0379    10752.559    1083235.7 
    4700         23.5   0.50611219 0.0012086346    5122.2315     5693.003    10815.235    1084292.2 
    4800           24   0.49500541 -0.00089703994    5158.9769    5568.0684    10727.045    1086119.5 
    4900         24.5   0.49690218 0.00091343801    5195.4931    5589.4041    10784.897    1087466.2 
    5000           25   0.50342574 -0.00013919803    5163.1498    5662.7845    10825.934    1089827.8 
    5100         25.5   0.50747371 0.00014287017    5165.8171     5708.318    10874.135    1091836.1 
    5200           26   0.51176194 0.0006852127    5154.8329    5756.5541    10911.387    1094406.6 
    5300         26.5   0.51042686 -0.00067565198    5190.8132    5741.5365     10932.35    1097070.8 
    5400           27   0.49912783 0.00083281431    5217.1998    5614.4394    10831.639    1099419.2 
    5500         27.5   0.49979064 -0.00026798071    5126.5969     5621.895    10748.492    1102517.9 
    5600           28   0.49573862 -4.019762e-05    5113.9792    5576.3159    10690.295    1105603.4 
    5700         28.5   0.49769427 0.00049151533    5177.7182     5598.314    10776.032    1108234.8 
    5800           29   0.50722772 2.3934254e-05    5143.8732     5705.551    10849.424    1111064.8 
    5900         29.5     0.501043 0.00055152516    5133.5724    5635.9822    10769.555    1113613.6 
    6000           30   0.50012851 -4.2724399e-05    5125.0049    5625.6955      10750.7    1116577.9 
    6100         30.5   0.50781246 0.00053149852    5158.5646    5712.1285    10870.693    1119327.8 
    6200           31    0.5033896 7.6168197e-05    5166.8507    5662.3779    10829.229      1121806 
    6300         31.5   0.49756591 -9.7436384e-05    5077.6773    5596.8701    10674.547    1124278.4 
    6400           32   0.49648434 0.0002716069    5048.7238    5584.7041    10633.428    1126412.7 
    6500         32.5   0.50200514 -0.0005468318     5041.415    5646.8048     10688.22    1128618.6 
    6600           33    0.4969997 0.00084602216    5089.1887    5590.5011     10679.69    1130154.4 
    6700         33.5   0.50078208 -0.00035117473    5216.7262    5633.0472    10849.773    1132206.6 
    6800           34   0.50213972 5.0716196e-06    5141.1249    5648.3187    10789.444    1133716.9 
    6900         34.5    0.4879057 0.00058648056    5150.1022    5488.2072    10638.309    1134969.1 
    7000           35   0.49200562 -0.00049564988    5090.4214    5534.3252    10624.747    1136536.9 
    7100         35.5   0.49468174 0.0014545447    5141.4692    5564.4275    10705.897      1137950 
    7200           36   0.48718519 -0.0013324555    5122.7126    5480.1026    10602.815      1140881 
    7300         36.5   0.50066543 0.0014405038    5133.7044    5631.7351     10765.44    1142878.9 
    7400           37   0.50601363 -0.00096282203    5130.0555    5691.8943     10821.95    1145820.3 
    7500         37.5   0.49127157 0.0013083677    5206.2575    5526.0683    10732.326    1147615.3 
    7600           38   0.50191697 -0.0012886675    5047.1306    5645.8131    10692.944    1150263.2 
    7700         38.5    0.5047255 0.00078792531    5096.8091    5677.4048    10774.214    1151398.2 
    7800           39   0.50658088 -0.00042795227    5119.3798     5698.275    10817.655      1153486 
    7900         39.5   0.50633967 0.0002616325     5212.125    5695.5617    10907.687    1155174.3 
    8000           40   0.51185841 0.00025782994    5227.6174    5757.6393    10985.257    1156750.5 
    8100         40.5   0.50520094 -0.00014329579    5235.8664    5682.7528    10918.619    1158664.1 
    8200           41   0.50167504 0.00032935968    5189.6137    5643.0917    10832.705      1160665 
    8300         41.5   0.49949853 0.00048245806    5117.1662    5618.6093    10735.775    1162960.6 
    8400           42   0.50800828 -0.00020129425    5140.9592    5714.3311     10855.29    1165558.4 
    8500         42.5   0.50350801 -0.00011255522    5168.0228    5663.7098    10831.733    1168044.9 
    8600           43   0.49897692 0.00034623177    5153.5465    5612.7419    10766.288    1169624.6 
    8700         43.5   0.49588961 -0.00073566859     5178.255    5578.0143    10756.269    1171099.8 
    8800           44   0.50078699 0.0014475723    5114.8918    5633.1024    10747.994    1171719.7 
    8900         44.5   0.49983852 -0.00091046985     5157.388    5622.4336    10779.822    1173728.2 
    9000           45   0.50787487 0.00051321471      5138.53    5712.8305    10851.361    1174773.2 
    9100         45.5   0.50667071 0.00025386759     5072.343    5699.2855    10771.628    1175649.1 
    9200           46   0.49517178 -0.00024194912    5169.8811    5569.9398    10739.821    1177153.9 
    9300         46.5   0.50206732 0.00072265931    5151.1277    5647.5042    10798.632    1178584.4 
    9400           47   0.50080455 -0.00063550189    5188.3229       5633.3    10821.623      1181019 
    9500         47.5   0.49866478  0.001421768    5192.3196    5609.2308     10801.55    1182689.9 
    9600           48   0.50060138 -0.0012232428    5233.6461    5631.0146    10864.661    1185768.6 
    9700         48.5   0.49861699 0.0013826757    5246.9036    5608.6932    10855.597    1187795.4 
    9800           49   0.49546925 -0.0012696718    5264.9126    5573.2859    10838.198    1190918.4 
    9900         49.5   0.50012888 0.00092278434    5231.7316    5625.6998    10857.431    1192396.7 
   10000           50   0.49746366 -0.00066818003    5190.4742    5595.7199    10786.194    1195141.1 
Loop time of 18.3571 on 1 procs for 10000 steps with 7500 atoms

Performance: 235331.851 tau/day, 544.750 timesteps/s
97.4% CPU use with 1 MPI tasks x 1 OpenMP threads

MPI task timing breakdown:
Section |  min time  |  avg time  |  max time  |%varavg| %total
---------------------------------------------------------------
Pair    | 0.56931    | 0.56931    | 0.56931    |   0.0 |  3.10
Bond    | 6.4353     | 6.4353     | 6.4353     |   0.0 | 35.06
Neigh   | 4.9621     | 4.9621     | 4.9621     |   0.0 | 27.03
Comm    | 0.1966     | 0.1966     | 0.1966     |   0.0 |  1.07
Output  | 0.38734    | 0.38734    | 0.38734    |   0.0 |  2.11
Modify  | 5.6409     | 5.6409     | 5.6409     |   0.0 | 30.73
Other   |            | 0.1654     |            |       |  0.90

Nlocal:    7500 ave 7500 max 7500 min
Histogram: 1 0 0 0 0 0 0 0 0 0
Nghost:    264 ave 264 max 264 min
Histogram: 1 0 0 0 0 0 0 0 0 0
Neighs:    46 ave 46 max 46 min
Histogram: 1 0 0 0 0 0 0 0 0 0

Total # of neighbors = 46
Ave neighs/atom = 0.00613333
Ave special neighs/atom = 5.2
Neighbor list builds = 883
Dangerous builds = 162

unfix 2
unfix 3
fix 4 all nve
fix 5 all langevin ${T} ${T} 1 123456
fix 5 all langevin 0.5 ${T} 1 123456
fix 5 all langevin 0.5 0.5 1 123456
fix recen1 all recenter INIT INIT INIT


# RUN
run ${run_steps}
run 10000
Per MPI rank memory allocation (min/avg/max) = 23.98 | 23.98 | 23.98 Mbytes
Step Time Temp Press PotEng KinEng TotEng Volume 
   10000           50   0.49746366 -0.00066818003    5190.4742    5595.7199    10786.194    1195141.1 
   10100         50.5   0.49849428 0.00038848664    5199.9467    5607.3129     10807.26    1195141.1 
   10200           51   0.50637702 8.2962023e-05    5219.9877    5695.9819     10915.97    1195141.1 
   10300         51.5    0.5066008 7.1855866e-05    5147.5298     5698.499    10846.029    1195141.1 
   10400           52   0.50156025 -0.00016753194    5215.2011    5641.8004    10857.002    1195141.1 
   10500         52.5   0.50156729 0.00076652704    5130.2978    5641.8797    10772.178    1195141.1 
   10600           53   0.49296559 -0.00041405375    5185.8295    5545.1235    10730.953    1195141.1 
   10700         53.5   0.49465219 0.00025768587    5016.5274    5564.0951    10580.623    1195141.1 
   10800           54   0.50271152 0.00045685061    5108.1753    5654.7506    10762.926    1195141.1 
   10900         54.5   0.49370091 0.00019381853     5223.814    5553.3947    10777.209    1195141.1 
   11000           55   0.50558795 -0.00024085923    5148.1871    5687.1061    10835.293    1195141.1 
   11100         55.5   0.49695538 0.0008598761    5286.5566    5590.0026    10876.559    1195141.1 
   11200           56   0.49985554 -0.00070287866    5191.9882    5622.6251    10814.613    1195141.1 
   11300         56.5   0.49604555 0.00086687022    5187.3478    5579.7684    10767.116    1195141.1 
   11400           57   0.50066506 -0.00020515316     5157.323    5631.7309    10789.054    1195141.1 
   11500         57.5   0.49761599 0.00079699261    5142.2576    5597.4334    10739.691    1195141.1 
   11600           58   0.50116328 0.0001603131    5050.4266    5637.3352    10687.762    1195141.1 
   11700         58.5   0.50170335 -0.00024154275    5123.8651    5643.4102    10767.275    1195141.1 
   11800           59   0.49272119 0.00044506441    5173.6245    5542.3743    10715.999    1195141.1 
   11900         59.5   0.50324474 -0.00023310281    5135.1841    5660.7484    10795.932    1195141.1 
   12000           60   0.50513751 0.00035846765    5163.6974    5682.0393    10845.737    1195141.1 
   12100         60.5   0.50526338 -0.00054625832     5153.256    5683.4551    10836.711    1195141.1 
   12200           61   0.49950377 0.0013268819    5159.2429    5618.6681    10777.911    1195141.1 
   12300         61.5   0.49929649 -0.0011122574    5158.8469    5616.3365    10775.183    1195141.1 
   12400           62   0.50842035 0.0010110363    5217.0176    5718.9663    10935.984    1195141.1 
   12500         62.5   0.49839423 -0.00062837688    5195.1169    5606.1875    10801.304    1195141.1 
   12600           63   0.50364737 0.0005510884    5152.6696    5665.2774    10817.947    1195141.1 
   12700         63.5   0.50505354 -9.5521415e-05    5179.8613    5681.0948    10860.956    1195141.1 
   12800           64   0.49746863 3.2868289e-06    5198.8145    5595.7759     10794.59    1195141.1 
   12900         64.5   0.50596509 -0.00012561337    5199.4943    5691.3483    10890.843    1195141.1 
   13000           65    0.5057439 0.00032631406    5126.6189    5688.8603    10815.479    1195141.1 
   13100         65.5   0.49984585 0.00021928906    5144.6594    5622.5161    10767.175    1195141.1 
   13200           66   0.50483412 0.00011125907    5255.7064    5678.6266    10934.333    1195141.1 
   13300         66.5   0.49753523 -9.8102879e-05    5232.6663     5596.525    10829.191    1195141.1 
   13400           67   0.49585923 -0.0002237008    5139.7292    5577.6726    10717.402    1195141.1 
   13500         67.5   0.50434052 0.00057275659    5106.6384    5673.0744    10779.713    1195141.1 
   13600           68    0.4929705 -0.00014787853    5114.2481    5545.1787    10659.427    1195141.1 
   13700         68.5   0.49607696 -0.00035817633     5158.554    5580.1217    10738.676    1195141.1 
   13800           69   0.49708672 0.00047979417    5141.7063      5591.48    10733.186    1195141.1 
   13900         69.5   0.49638833 1.906626e-07    5237.4009    5583.6241    10821.025    1195141.1 
   14000           70    0.5125505 -1.8361958e-06    5136.0135    5765.4243    10901.438    1195141.1 
   14100         70.5   0.50446899 0.00019631189    5266.6361    5674.5194    10941.155    1195141.1 
   14200           71   0.50338783 -3.0446673e-05    5163.2694     5662.358    10825.627    1195141.1 
   14300         71.5   0.49934182 5.6807133e-05    5151.0759    5616.8465    10767.922    1195141.1 
   14400           72   0.49980074 0.00020267297    5110.7298    5622.0087    10732.738    1195141.1 
   14500         72.5    0.4965678 0.00024624889    5166.5765    5585.6429    10752.219    1195141.1 
   14600           73   0.49034565 9.6290122e-05    5154.9408    5515.6531    10670.594    1195141.1 
   14700         73.5   0.49676736 -8.6266844e-05     5212.656    5587.8876    10800.544    1195141.1 
   14800           74   0.51298661 0.00082276166    5123.9075    5770.3299    10894.237    1195141.1 
   14900         74.5    0.4984319 -0.00038356641    5187.7403    5606.6112    10794.352    1195141.1 
   15000           75   0.49779057 0.00054404925    5166.3685    5599.3972    10765.766    1195141.1 
   15100         75.5   0.49465651 -0.00021194924    5212.1511    5564.1438    10776.295    1195141.1 
   15200           76   0.49378221 0.00087405293      5178.99    5554.3092    10733.299    1195141.1 
   15300         76.5   0.50013861 -0.00068468689    5128.6609    5625.8092     10754.47    1195141.1 
   15400           77    0.5050456 0.00098103408    5182.8636    5681.0055    10863.869    1195141.1 
   15500         77.5   0.49922585 -0.00028408844    5226.1039     5615.542    10841.646    1195141.1 
   15600           78   0.50426026 0.00067699653    5105.8876    5672.1715    10778.059    1195141.1 
   15700         78.5   0.49013186 -0.00038942138     5186.219    5513.2482    10699.467    1195141.1 
   15800           79   0.50296575 0.00074214311    5152.9923    5657.6102    10810.603    1195141.1 
   15900         79.5   0.50392775 -0.0005794349    5191.7776    5668.4313    10860.209    1195141.1 
   16000           80   0.50489284 0.00081415407    5278.1995    5679.2872    10957.487    1195141.1 
   16100         80.5    0.5017926 -0.00085378874    5114.6821    5644.4141    10759.096    1195141.1 
   16200           81    0.4985646 0.00073777976    5101.7158    5608.1039     10709.82    1195141.1 
   16300         81.5   0.49603175 -0.00032153126    5205.6634    5579.6131    10785.277    1195141.1 
   16400           82   0.49564558 0.00078942766    5117.5482    5575.2694    10692.818    1195141.1 
   16500         82.5   0.50136524 -0.00092282686    5075.2932    5639.6069      10714.9    1195141.1 
   16600           83   0.49403515 0.0013197065    5240.5159    5557.1543     10797.67    1195141.1 
   16700         83.5   0.49882509 -0.001268362    5208.2496    5611.0341    10819.284    1195141.1 
   16800           84   0.50361569 0.00078060752    5136.2426     5664.921    10801.164    1195141.1 
   16900         84.5   0.50455393 -0.00035741449    5128.2521    5675.4749    10803.727    1195141.1 
   17000           85   0.50284843 0.0004240171    5156.2278    5656.2905    10812.518    1195141.1 
   17100         85.5   0.50292488 0.00015601318    5123.5542    5657.1505    10780.705    1195141.1 
   17200           86   0.49803764 0.00012903101    5194.1636    5602.1764     10796.34    1195141.1 
   17300         86.5   0.50219478 0.00078233224    5163.7282     5648.938    10812.666    1195141.1 
   17400           87   0.50094492 -0.00033621296    5210.3541     5634.879    10845.233    1195141.1 
   17500         87.5   0.50213902 0.00053395708    5242.1631    5648.3108    10890.474    1195141.1 
   17600           88   0.50366779 0.00013631169    5207.5535    5665.5072    10873.061    1195141.1 
   17700         88.5    0.5044385 6.2506235e-05    5137.1777    5674.1765    10811.354    1195141.1 
   17800           89   0.50389492 0.0005052149    5197.5875    5668.0621     10865.65    1195141.1 
   17900         89.5   0.50308598 -0.00055729992    5155.7884    5658.9626    10814.751    1195141.1 
   18000           90   0.50825302 0.00033550568    5183.7981    5717.0841    10900.882    1195141.1 
   18100         90.5   0.50194022 0.00030248163    5171.7554    5646.0746     10817.83    1195141.1 
   18200           91   0.50295746 0.0001129652    5111.1801     5657.517    10768.697    1195141.1 
   18300         91.5   0.49804416 -0.00033726544     5063.812    5602.2497    10666.062    1195141.1 
   18400           92   0.50047201 0.00049628056    5132.8998    5629.5594    10762.459    1195141.1 
   18500         92.5   0.50695435 -0.00018418209     5097.715    5702.4761    10800.191    1195141.1 
   18600           93   0.49993526 0.0011542052    5161.3159    5623.5218    10784.838    1195141.1 
   18700         93.5   0.50342247 -0.00015185232    5168.7627    5662.7476     10831.51    1195141.1 
   18800           94   0.49935637 0.00060405801    5229.4914    5617.0101    10846.501    1195141.1 
   18900         94.5   0.50152817 -0.00011486696    5216.6994    5641.4396    10858.139    1195141.1 
   19000           95    0.5031113 0.00045135518    5211.8342    5659.2474    10871.082    1195141.1 
   19100         95.5   0.50968348 8.8231901e-06    5102.8666    5733.1746    10836.041    1195141.1 
   19200           96   0.49785761 0.00029294935    5156.4883    5600.1513     10756.64    1195141.1 
   19300         96.5   0.49918659 -0.00027355563    5185.9441    5615.1004    10801.044    1195141.1 
   19400           97   0.49527337 0.00090229894    5227.5535    5571.0826    10798.636    1195141.1 
   19500         97.5   0.50033374 0.00014370496    5074.2039    5628.0041    10702.208    1195141.1 
   19600           98   0.49629082 0.00031996504    5121.3745    5582.5273    10703.902    1195141.1 
   19700         98.5   0.50080595 7.7619373e-05    5164.0194    5633.3157    10797.335    1195141.1 
   19800           99   0.50002169 0.00016214955    5139.6277     5624.494    10764.122    1195141.1 
   19900         99.5   0.50767576 0.00061415106    5077.4465    5710.5908    10788.037    1195141.1 
   20000          100   0.50125868 -0.0002235771    5140.4851    5638.4083    10778.893    1195141.1 
Loop time of 14.4314 on 1 procs for 10000 steps with 7500 atoms

Performance: 299347.384 tau/day, 692.934 timesteps/s
97.2% CPU use with 1 MPI tasks x 1 OpenMP threads

MPI task timing breakdown:
Section |  min time  |  avg time  |  max time  |%varavg| %total
---------------------------------------------------------------
Pair    | 0.24953    | 0.24953    | 0.24953    |   0.0 |  1.73
Bond    | 4.2694     | 4.2694     | 4.2694     |   0.0 | 29.58
Neigh   | 4.7453     | 4.7453     | 4.7453     |   0.0 | 32.88
Comm    | 0.17648    | 0.17648    | 0.17648    |   0.0 |  1.22
Output  | 0.36392    | 0.36392    | 0.36392    |   0.0 |  2.52
Modify  | 4.4532     | 4.4532     | 4.4532     |   0.0 | 30.86
Other   |            | 0.1736     |            |       |  1.20

Nlocal:    7500 ave 7500 max 7500 min
Histogram: 1 0 0 0 0 0 0 0 0 0
Nghost:    292 ave 292 max 292 min
Histogram: 1 0 0 0 0 0 0 0 0 0
Neighs:    54 ave 54 max 54 min
Histogram: 1 0 0 0 0 0 0 0 0 0

Total # of neighbors = 54
Ave neighs/atom = 0.0072
Ave special neighs/atom = 5.2
Neighbor list builds = 841
Dangerous builds = 73
write_restart restart.time*

#This section  of codes allows looping over the list of T values
clear
OMP_NUM_THREADS environment is not set. Defaulting to 1 thread. (../comm.cpp:94)
  using 1 OpenMP thread(s) per MPI task
next mix_steps
jump in.run_loop loop  #jumps back to loop label
read_restart restart.time*
  restoring atom style molecular from restart
  orthogonal box = (-53.0611 -53.0611 -53.0611) to (53.0611 53.0611 53.0611)
  1 by 1 by 1 MPI processor grid
  restoring pair style lj/cut from restart
  restoring bond style harmonic from restart
  restoring angle style harmonic from restart
  7500 atoms
  7000 bonds
  6500 angles
  2 = max # of 1-2 neighbors
  2 = max # of 1-3 neighbors
  4 = max # of 1-4 neighbors
  6 = max # of special neighbors
  special bonds CPU = 0.00694489 secs
  read_restart CPU = 0.0199201 secs
# this reads in latest restart file, * is wildcard for timestep


# THERMAL
timestep ${t_step}
timestep 0.005
thermo   100
thermo_style custom step time temp press pe ke etotal vol
thermo_modify norm no


# DUMP OUTPUT
dump  1  all custom 5000 output_T_${T}_time_*.dump id mol type x y z vx vy vz
dump  1  all custom 5000 output_T_0.5_time_*.dump id mol type x y z vx vy vz
# dumps all positions etc every N  steps
dump_modify 1 sort id

# FIX
fix 2 all nph iso 0.0000001 0.0000001 10   #reduced target pressure here
fix 3 all langevin ${T} ${T} 1 123456 #as above
fix 3 all langevin 0.5 ${T} 1 123456 
fix 3 all langevin 0.5 0.5 1 123456 
run ${mix_steps}
run 20000
Neighbor list info ...
  update every 1 steps, delay 10 steps, check yes
  max neighbors/atom: 2000, page size: 100000
  master list distance cutoff = 1.42
  ghost atom cutoff = 1.9
  binsize = 0.71, bins = 150 150 150
  1 neighbor lists, perpetual/occasional/extra = 1 0 0
  (1) pair lj/cut, perpetual
      attributes: half, newton on
      pair build: half/bin/newton
      stencil: half/bin/3d/newton
      bin: standard
Per MPI rank memory allocation (min/avg/max) = 23.98 | 23.98 | 23.98 Mbytes
Step Time Temp Press PotEng KinEng TotEng Volume 
   20000            0   0.50125868 -0.0002235771    5140.4851    5638.4083    10778.893    1195141.1 
   20100          0.5    0.5006064 0.00048833024     5146.723    5631.0711    10777.794      1195999 
   20200            1   0.49449125 -0.00041181083    5208.4695    5562.2848    10770.754    1197125.1 
   20300          1.5   0.49813264 0.00026002889    5138.1977     5603.245    10741.443    1198127.6 
   20400            2   0.50486165 -2.5430934e-05    5144.1652    5678.9363    10823.101    1199529.6 
   20500          2.5   0.49790232 -8.5678974e-05    5268.1833    5600.6542    10868.838    1201389.8 
   20600            3   0.49728226 -7.6469348e-05     5178.268    5593.6795    10771.948      1203180 
   20700          3.5   0.49856487 0.0001770625    5142.8176     5608.107    10750.925      1205654 
   20800            4   0.49923931 -0.00027747849    5162.6472    5615.6933    10778.341    1208388.3 
   20900          4.5   0.49989424 -0.00026192379    5124.1429    5623.0603    10747.203    1210911.8 
   21000            5   0.50237281 0.00085191453    5133.5177    5650.9406    10784.458    1213203.1 
   21100          5.5   0.49932073 -0.00068420651    5109.2188    5616.6092    10725.828    1216274.2 
   21200            6   0.49807623 0.00018641878    5130.0512    5602.6104    10732.662    1218577.9 
   21300          6.5   0.50049741 0.00031197846    5050.5305    5629.8451    10680.376    1220909.5 
   21400            7   0.49811855 -0.00029911013     5110.091    5603.0865    10713.177    1223511.2 
   21500          7.5   0.49865115 -0.00042059755    5143.4526    5609.0774     10752.53      1225744 
   21600            8   0.49642352 5.667113e-07    5155.9535    5584.0199    10739.973    1227637.9 
   21700          8.5   0.50134536 0.00035569905    5144.0699    5639.3833    10783.453    1229234.5 
   21800            9   0.49326429 -0.00036714555    5142.5133    5548.4834    10690.997      1231224 
   21900          9.5   0.49970502 0.00048509174    5194.3695    5620.9319    10815.301    1232880.8 
   22000           10   0.50081909 -0.00029991441    5210.0918    5633.4635    10843.555    1235763.2 
   22100         10.5   0.49646384 -0.00036890787    5230.1817    5584.4735    10814.655    1237728.2 
   22200           11   0.49798965 0.00047853625    5216.9457    5601.6366    10818.582    1239130.6 
   22300         11.5   0.49992465 -7.7670447e-05      5135.81    5623.4024    10759.212    1240997.6 
   22400           12   0.49571106 0.00030727924    5206.5913    5576.0058    10782.597    1243558.9 
   22500         12.5   0.49983438 0.00041482296    5051.0396    5622.3871    10673.427    1245886.6 
   22600           13   0.49468628 -0.00031893141    5153.4781    5564.4786    10717.957    1248546.3 
   22700         13.5   0.49419905 0.00040022376    5195.0219    5558.9981     10754.02    1251116.7 
   22800           14   0.49983386 -0.00045355592    5140.5025    5622.3811    10762.884    1254202.1 
   22900         14.5    0.4935439 0.00018294653     5167.733    5551.6285    10719.362    1256595.8 
   23000           15   0.49711872 0.00023203769    5165.0662    5591.8399    10756.906    1259239.8 
   23100         15.5   0.50257545 -0.00043259394    5189.1405      5653.22     10842.36    1261993.1 
   23200           16   0.51480267 0.00049095996    5144.5386    5790.7578    10935.296    1264121.6 
   23300         16.5   0.50796283 -0.000236414    5109.2302    5713.8199     10823.05      1266993 
   23400           17   0.50832098 0.00032223026    5160.4773    5717.8485    10878.326    1269039.4 
   23500         17.5   0.50232506 -0.00031377238    5264.8925    5650.4034    10915.296    1271349.6 
   23600           18   0.50586164 0.00079295801    5200.7669    5690.1846    10890.951    1273368.3 
   23700         18.5   0.50305679 -0.00028980708     5143.917    5658.6343    10802.551    1276155.8 
   23800           19   0.49583128 0.00083446325    5273.2829    5577.3582    10850.641    1278890.4 
   23900         19.5    0.5012173 -0.00058379469     5108.014    5637.9427    10745.957    1282470.6 
   24000           20   0.49671753 0.00039695378    5177.4887    5587.3271    10764.816    1284961.2 
   24100         20.5   0.49910003 1.7380068e-05    5156.3491    5614.1267    10770.476    1287741.7 
   24200           21   0.49817196 -0.00036552994    5118.3339    5603.6872    10722.021    1290257.5 
   24300         21.5   0.49932057 0.00033919641    5134.8783    5616.6074    10751.486    1292008.8 
   24400           22   0.49649807 1.7657186e-05    5181.7886    5584.8586    10766.647    1293831.3 
   24500         22.5    0.4946585 0.00017966015    5113.8108    5564.1661    10677.977      1295366 
   24600           23   0.49618296 -6.678697e-06    5128.3997     5581.314    10709.714      1297292 
   24700         23.5   0.50160467 0.00021104805    5132.9937    5642.3001    10775.294    1299388.1 
   24800           24    0.5050404 5.7608118e-05    5126.1351     5680.947    10807.082    1301806.1 
   24900         24.5   0.50245192 -0.00060314727    5211.1024    5651.8305    10862.933    1303776.9 
   25000           25   0.50638562 0.00034084671    5212.2279    5696.0787    10908.307    1304643.7 
   25100         25.5   0.50478883 0.00020448402    5228.4108    5678.1171    10906.528    1305753.2 
   25200           26   0.49429866 -0.00035544971    5200.1534    5560.1185    10760.272    1307416.5 
   25300         26.5   0.50517113 0.00082975638    5188.6329    5682.4175     10871.05    1309161.9 
   25400           27   0.49927433 -0.00019481102    5128.3786    5616.0872    10744.466    1311735.5 
   25500         27.5   0.49932831 0.00038498025    5093.2597    5616.6945    10709.954    1314559.2 
   25600           28    0.4907334 -2.5187123e-05    5149.0431    5520.0147    10669.058    1317589.2 
   25700         28.5    0.4955269 0.00020610095    5092.6978    5573.9344    10666.632    1320936.5 
   25800           29   0.49843999 0.00016295002     5095.344    5606.7022    10702.046      1324171 
   25900         29.5   0.49770151 1.5467553e-06    5222.9351    5598.3954    10821.331    1327162.2 
   26000           30   0.49801877 0.00020925941    5214.9062    5601.9641     10816.87    1330009.5 
   26100         30.5   0.49654824 -0.00047828921    5219.0167    5585.4229     10804.44    1332818.8 
   26200           31   0.49620349  0.000435719    5200.3079     5581.545    10781.853    1334730.6 
   26300         31.5   0.50161706 0.00011021065    5148.3328    5642.4395    10790.772    1337243.9 
   26400           32   0.50363342 0.00014578029    5178.1978    5665.1205    10843.318    1340100.7 
   26500         32.5     0.496903 0.00016152566    5224.0969    5589.4134     10813.51    1343209.9 
   26600           33   0.49868281 -4.5755858e-05    5221.5581    5609.4336    10830.992    1346895.6 
   26700         33.5    0.4980694 -0.00055665352    5319.3181    5602.5336    10921.852    1349644.4 
   26800           34   0.51134072 0.00017168848    5152.0631    5751.8161    10903.879    1351644.5 
   26900         34.5   0.50506003 8.2413164e-06     5211.746    5681.1677    10892.914    1353339.5 
   27000           35   0.50539712 9.6021511e-05    5155.5428    5684.9595    10840.502    1355475.3 
   27100         35.5   0.50582085 -0.00032157299    5175.7077    5689.7258    10865.433    1357355.3 
   27200           36   0.49420683 0.00034658889    5141.7841    5559.0855     10700.87    1358606.7 
   27300         36.5    0.4954511 0.00017234073    5111.6796    5573.0817    10684.761    1360523.3 
   27400           37   0.49407147 -0.00042477367    5259.9249    5557.5629    10817.488    1363023.8 
   27500         37.5   0.50624251 0.00034564442    5215.1628    5694.4689    10909.632    1364901.2 
   27600           38   0.50011652 -0.0004588881    5187.8757    5625.5607    10813.436    1367037.5 
   27700         38.5   0.49829487 0.0005083766    5145.8498    5605.0698     10750.92    1368753.3 
   27800           39   0.50086196 0.00039571235    5110.7763    5633.9458    10744.722    1371574.4 
   27900         39.5   0.49827777 0.00040560698    5030.9778    5604.8775    10635.855    1375220.7 
   28000           40   0.49217491 -4.8072095e-05    5141.3561    5536.2295    10677.586    1379034.5 
   28100         40.5   0.49855246 0.00039857055    5117.6227    5607.9674     10725.59    1382187.1 
   28200           41   0.50018687 -1.0896951e-05    5172.7313     5626.352    10799.083    1385966.9 
   28300         41.5   0.49954967  0.000102298    5167.7285    5619.1844    10786.913    1389481.8 
   28400           42   0.49818589 0.00022108187    5228.0353     5603.844    10831.879    1392349.6 
   28500         42.5   0.50001848 2.5577206e-05    5124.9472    5624.4579    10749.405    1395752.5 
   28600           43   0.49918288 -0.0003806818    5118.7206    5615.0586    10733.779    1398390.8 
   28700         43.5   0.49798606 0.00068894633    5122.3122    5601.5962    10723.908    1400518.7 
   28800           44   0.50253688 -0.00031312364    5139.9775    5652.7861    10792.764    1403544.6 
   28900         44.5   0.49980754 0.00010391114    5176.8273    5622.0851    10798.912    1406683.9 
   29000           45   0.50022817 0.00042876032    5092.4415    5626.8166    10719.258    1409555.4 
   29100         45.5   0.50515835 -0.00070488196    5128.1489    5682.2737    10810.423    1412002.3 
   29200           46   0.49244096 0.0010985038    5145.3289    5539.2221    10684.551    1413431.6 
   29300         46.5   0.49480525 -0.0011494127    5080.3915    5565.8168    10646.208    1416549.8 
   29400           47   0.49964627 0.00083862139     5113.208    5620.2711    10733.479    1418386.4 
   29500         47.5   0.49379085 -0.00016412727    5088.3456    5554.4064    10642.752    1421837.6 
   29600           48   0.49515892 0.00021985504    5141.4468    5569.7951    10711.242    1424805.5 
   29700         48.5   0.50022348 -0.00021118319    5158.9458    5626.7638     10785.71    1427891.1 
   29800           49   0.49869427 0.00029627142    5158.4294    5609.5625    10767.992    1430933.5 
   29900         49.5    0.4990458 -0.0004207778    5127.0267    5613.5167    10740.543      1434497 
   30000           50   0.48335512 0.0005381202    5245.9476      5437.02    10682.968    1437413.7 
   30100         50.5   0.49821922 -0.00053908355     5109.016    5604.2189    10713.235    1441432.5 
   30200           51   0.49336768 0.0001704077    5179.4686    5549.6464    10729.115    1444229.9 
   30300         51.5   0.49936786 0.00010275299    5121.6066    5617.1394    10738.746    1447031.6 
   30400           52   0.49577552 -0.00052419269    5236.9242    5576.7309    10813.655    1449439.4 
   30500         52.5   0.49484414 0.00073894076    5124.0584    5566.2544    10690.313      1451576 
   30600           53   0.50461031 -0.00058775475    5154.2866    5676.1091    10830.396    1455112.8 
   30700         53.5   0.50404875 0.00055031205     5145.455    5669.7924    10815.247    1458103.5 
   30800           54   0.50007769 -0.00061602522    5140.1283    5625.1239    10765.252    1461602.1 
   30900         54.5   0.49799803 0.00035424435    5196.5921    5601.7308    10798.323    1463505.3 
   31000           55   0.49886275 -0.00037548517    5123.1756    5611.4576    10734.633    1466035.3 
   31100         55.5   0.49629927 0.00031814517     5216.509    5582.6223    10799.131    1467853.2 
   31200           56   0.50170424 -0.00024640479    5123.0124    5643.4201    10766.433    1470583.4 
   31300         56.5   0.49489281 0.0002481385    5160.5491    5566.8017    10727.351    1472256.7 
   31400           57   0.49826546 5.6854297e-05    5128.0924    5604.7391    10732.831    1474101.7 
   31500         57.5   0.49327663 -0.00029745911     5157.635    5548.6222    10706.257    1476169.9 
   31600           58   0.49623626 -0.00012728848    5109.6756    5581.9136    10691.589      1477313 
   31700         58.5   0.50409417 5.250066e-05    5181.7321    5670.3032    10852.035    1478211.7 
   31800           59   0.49744752 0.00047196447    5244.9822    5595.5385    10840.521    1479579.1 
   31900         59.5   0.49764181 -0.00025470312    5170.1722    5597.7239    10767.896    1481402.4 
   32000           60   0.49828226 0.00022142769    5200.6173     5604.928    10805.545    1483073.8 
   32100         60.5    0.5041207 -0.00018283106    5143.3697    5670.6017    10813.971    1484878.2 
   32200           61   0.49950316 0.00020311753     5156.535    5618.6613    10775.196    1486529.5 
   32300         61.5   0.50825582 0.00019485638    5107.3368    5717.1156    10824.452      1488857 
   32400           62   0.50655332 -0.00029324455    5101.2059     5697.965    10799.171    1491518.6 
   32500         62.5   0.49721547 0.00078171994    5138.9235    5592.9282    10731.852    1493765.4 
   32600           63   0.50215895 -0.00053407101    5163.2104    5648.5349    10811.745    1497033.7 
   32700         63.5   0.49407422 0.00036557729      5198.53    5557.5938    10756.124    1499683.3 
   32800           64   0.50388587 0.00012643186    5240.4632    5667.9602    10908.423    1502016.3 
   32900         64.5   0.49666191 -0.00036754754    5217.2622    5586.7015    10803.964    1504284.5 
   33000           65   0.49988273 0.00021559471    5168.0797    5622.9309    10791.011    1505888.4 
   33100         65.5   0.49569648 5.7241862e-05    5185.5122    5575.8418    10761.354      1507550 
   33200           66   0.50349165 -1.3625563e-05     5153.258    5663.5259    10816.784    1508339.6 
   33300         66.5   0.49926803 0.0001956346     5139.699    5616.0164    10755.715    1509641.6 
   33400           67   0.50677941 -0.00018999419    5114.3129    5700.5082    10814.821    1511102.1 
   33500         67.5   0.49765091 0.00042580201     5195.817    5597.8263    10793.643      1512318 
   33600           68   0.50167932 -0.0002477398    5177.0947    5643.1398    10820.235    1514609.9 
   33700         68.5   0.49851453 0.00042252338    5152.0211    5607.5407    10759.562    1516570.7 
   33800           69   0.50001428 -0.00055500213    5167.4186    5624.4107    10791.829    1518974.6 
   33900         69.5   0.50252601 0.00019686825    5172.4773    5652.6638    10825.141    1520508.9 
   34000           70    0.5073398 -0.00012724226    5168.0928    5706.8118    10874.905    1522652.5 
   34100         70.5   0.50280261 0.00010366864    5224.9063    5655.7752    10880.681      1524526 
   34200           71   0.50558202 -7.9481087e-05    5128.8951    5687.0394    10815.934    1526635.4 
   34300         71.5   0.50205011 0.00022850415    5291.8853    5647.3107    10939.196    1528407.7 
   34400           72   0.50445829 -7.7949208e-05    5173.6121    5674.3991    10848.011    1530420.2 
   34500         72.5   0.50786497 0.00037624953    5159.4948    5712.7191    10872.214    1532130.7 
   34600           73   0.49411715 -0.00018924306     5211.815    5558.0767    10769.892    1534762.8 
   34700         73.5   0.49580303 0.00012736033    5150.1325    5577.0403    10727.173    1537398.2 
   34800           74   0.49501833 0.00030997425    5112.4371    5568.2137    10680.651    1540501.5 
   34900         74.5   0.48730901 -0.00074598053    5139.4133    5481.4954    10620.909    1544298.3 
   35000           75   0.50219433 0.00099937435    5050.0324    5648.9329    10698.965    1546840.6 
   35100         75.5   0.50242572 -0.00071081747    5188.9777    5651.5358    10840.513    1550022.6 
   35200           76   0.50029247 0.00027970668    5139.3407    5627.5398    10766.881    1552190.5 
   35300         76.5   0.50487836 7.561107e-05    5152.7656    5679.1242     10831.89    1554616.8 
   35400           77   0.50080386 -0.00033637669    5132.1227    5633.2922    10765.415    1557135.8 
   35500         77.5   0.49794419 0.00039611703    5146.4168    5601.1253    10747.542    1558984.4 
   35600           78   0.50629465 -0.00012037604    5122.8977    5695.0554    10817.953      1561786 
   35700         78.5   0.49824961 3.2110672e-05    5205.9481    5604.5608    10810.509    1564252.9 
   35800           79   0.49344543 0.00011625435    5196.2383     5550.521    10746.759    1567155.6 
   35900         79.5   0.49623456 0.00016215698    5093.3747    5581.8945    10675.269    1570515.7 
   36000           80   0.49226428 0.00021273274    5110.0032    5537.2347    10647.238    1574048.4 
   36100         80.5   0.49451705 5.7316659e-05    5081.6153     5562.575     10644.19    1577772.5 
   36200           81   0.49880556 -6.2902076e-05    5064.5464    5610.8144    10675.361    1581344.3 
   36300         81.5   0.49577623 0.00022906379     5172.771     5576.739     10749.51    1584284.1 
   36400           82   0.50548801 -0.000341017    5130.2553    5685.9819    10816.237    1587175.7 
   36500         82.5    0.4932054 0.00022568936    5148.3327    5547.8209    10696.154    1589882.7 
   36600           83   0.49697331 -0.00011571266    5032.5078    5590.2042    10622.712    1593154.5 
   36700         83.5   0.49505983 -1.7554384e-05    5068.7513    5568.6805    10637.432      1595726 
   36800           84   0.49754896 0.00098043159    5189.5235    5596.6795    10786.203    1598252.8 
   36900         84.5   0.50363031 -0.00055739372     5156.149    5665.0855    10821.234    1603092.5 
   37000           85   0.50570104 0.00041193441    5182.7521    5688.3782     10871.13    1607054.6 
   37100         85.5    0.5015007 1.409083e-05    5179.4388    5641.1306    10820.569    1611488.6 
   37200           86   0.49535525 -0.00037898471    5247.7381    5572.0036    10819.742      1615538 
   37300         86.5   0.49288347 0.0005419247     5211.518    5544.1997    10755.718    1618500.2 
   37400           87   0.49359764 -0.00065381951    5205.8496    5552.2331    10758.083    1621848.7 
   37500         87.5   0.49440293 0.00072666115    5190.4993    5561.2913    10751.791    1624110.4 
   37600           88   0.50316417 -0.00044668001    5208.4795    5659.8422    10868.322    1627579.7 
   37700         88.5    0.4969507 0.00047326995    5195.0059    5589.9499    10784.956    1630523.8 
   37800           89   0.49880113 -0.00047945347     5218.033    5610.7645    10828.798    1633328.3 
   37900         89.5   0.50736369 0.00054998689    5128.5777    5707.0805    10835.658    1635688.8 
   38000           90   0.50631008 0.00011452714    5174.2036     5695.229    10869.433    1639018.6 
   38100         90.5   0.50272053 -0.00015869918    5244.6372    5654.8519    10899.489    1642027.8 
   38200           91   0.49604205 0.00023785154    5240.7429     5579.729    10820.472    1644900.8 
   38300         91.5   0.50291779 1.6112355e-05    5146.4069    5657.0708    10803.478    1647986.8 
   38400           92     0.505745 0.00024930453     5120.651    5688.8726    10809.524      1651188 
   38500         92.5   0.51245249 -4.6359651e-05    5143.5385    5764.3219     10907.86    1654597.7 
   38600           93   0.50492572 0.00039551321    5270.5294    5679.6569    10950.186    1657477.2 
   38700         93.5   0.50797773 -0.00032135828    5167.4639    5713.9875    10881.451    1661227.9 
   38800           94   0.49923921 0.00056870518    5204.5404    5615.6922    10820.233    1663866.6 
   38900         94.5   0.49850456 -0.00066968865    5167.0443    5607.4286    10774.473    1667574.5 
   39000           95   0.49887952 0.00072949607    5145.1246    5611.6462    10756.771    1669670.1 
   39100         95.5   0.49862928 -0.00012234861    5161.7492    5608.8315    10770.581    1673745.2 
   39200           96   0.50189881 3.8130075e-05    5140.9182    5645.6087    10786.527    1678018.7 
   39300         96.5    0.4955788 0.00013541318    5209.4184    5574.5181    10783.937    1682597.3 
   39400           97   0.50022055 -0.00014096784    5070.0006    5626.7309    10696.731    1686976.1 
   39500         97.5   0.50132021 0.00017213475    5163.9971    5639.1004    10803.097    1690556.2 
   39600           98   0.49860458 -3.5796014e-05    5175.3045    5608.5537    10783.858    1693908.6 
   39700         98.5   0.49882741 4.9868225e-05    5123.2199    5611.0601     10734.28    1697125.6 
   39800           99   0.50411036 0.00028440112    5170.7446    5670.4854     10841.23    1700379.3 
   39900         99.5   0.50830421 -6.7184892e-06    5131.2799    5717.6599     10848.94      1702777 
   40000          100   0.50414071 0.00015868556    5154.1023    5670.8268    10824.929    1705177.5 
Loop time of 38.2026 on 1 procs for 20000 steps with 7500 atoms

Performance: 226162.801 tau/day, 523.525 timesteps/s
96.6% CPU use with 1 MPI tasks x 1 OpenMP threads

MPI task timing breakdown:
Section |  min time  |  avg time  |  max time  |%varavg| %total
---------------------------------------------------------------
Pair    | 1.078      | 1.078      | 1.078      |   0.0 |  2.82
Bond    | 12.637     | 12.637     | 12.637     |   0.0 | 33.08
Neigh   | 11.553     | 11.553     | 11.553     |   0.0 | 30.24
Comm    | 0.44723    | 0.44723    | 0.44723    |   0.0 |  1.17
Output  | 0.73765    | 0.73765    | 0.73765    |   0.0 |  1.93
Modify  | 11.436     | 11.436     | 11.436     |   0.0 | 29.93
Other   |            | 0.3136     |            |       |  0.82

Nlocal:    7500 ave 7500 max 7500 min
Histogram: 1 0 0 0 0 0 0 0 0 0
Nghost:    265 ave 265 max 265 min
Histogram: 1 0 0 0 0 0 0 0 0 0
Neighs:    22 ave 22 max 22 min
Histogram: 1 0 0 0 0 0 0 0 0 0

Total # of neighbors = 22
Ave neighs/atom = 0.00293333
Ave special neighs/atom = 5.2
Neighbor list builds = 1771
Dangerous builds = 326

unfix 2
unfix 3
fix 4 all nve
fix 5 all langevin ${T} ${T} 1 123456
fix 5 all langevin 0.5 ${T} 1 123456
fix 5 all langevin 0.5 0.5 1 123456
fix recen1 all recenter INIT INIT INIT


# RUN
run ${run_steps}
run 10000
Per MPI rank memory allocation (min/avg/max) = 30.02 | 30.02 | 30.02 Mbytes
Step Time Temp Press PotEng KinEng TotEng Volume 
   40000          100   0.50414071 0.00015868556    5154.1023    5670.8268    10824.929    1705177.5 
   40100        100.5   0.50596597 -0.00033686868    5109.6786    5691.3582    10801.037    1705177.5 
   40200          101   0.50241277 0.00027826817    5174.4646      5651.39    10825.855    1705177.5 
   40300        101.5   0.50502266 0.00037903382    5136.1994    5680.7474    10816.947    1705177.5 
   40400          102   0.49662148 0.00014889456    5202.8848    5586.2467    10789.132    1705177.5 
   40500        102.5   0.50138281 0.00014111814     5194.712    5639.8045    10834.517    1705177.5 
   40600          103   0.50411726 7.0335242e-05    5200.7306     5670.563    10871.294    1705177.5 
   40700        103.5   0.50043853 8.0007505e-05     5277.941    5629.1828    10907.124    1705177.5 
   40800          104   0.50199245 -0.0001598701    5163.5516    5646.6621    10810.214    1705177.5 
   40900        104.5    0.4985843 0.00012338997    5203.1825    5608.3256    10811.508    1705177.5 
   41000          105    0.4989378 0.0001169506     5160.889    5612.3019    10773.191    1705177.5 
   41100        105.5    0.5006969 0.00031121507    5149.5327    5632.0891    10781.622    1705177.5 
   41200          106   0.49524947 -0.00020270831    5197.7478    5570.8137    10768.561    1705177.5 
   41300        106.5   0.49671959 0.00021325248    5209.0403    5587.3503    10796.391    1705177.5 
   41400          107   0.50527898 2.5477061e-05    5186.7446    5683.6306    10870.375    1705177.5 
   41500        107.5   0.50513715 0.00028772866    5130.4682    5682.0352    10812.503    1705177.5 
   41600          108   0.49809862 -0.00030009889    5178.9841    5602.8624    10781.846    1705177.5 
   41700        108.5   0.50184783 0.00039464956    5137.5932    5645.0354    10782.629    1705177.5 
   41800          109   0.49576665 -0.00043435942    5082.9575    5576.6312    10659.589    1705177.5 
   41900        109.5    0.4985619 0.00045011095    5173.6908    5608.0735    10781.764    1705177.5 
   42000          110   0.50049873 -0.00014115419    5168.0657    5629.8599    10797.926    1705177.5 
   42100        110.5   0.49267562 0.00049682118    5142.9788    5541.8617     10684.84    1705177.5 
   42200          111   0.49893984 0.00023068813    5108.7527    5612.3248    10721.078    1705177.5 
   42300        111.5   0.50038675 -1.9041722e-05    5160.1746    5628.6003    10788.775    1705177.5 
   42400          112   0.49966809 -7.0906533e-05    5100.0444    5620.5165    10720.561    1705177.5 
   42500        112.5   0.50260567 -0.00015668224    5103.4129    5653.5599    10756.973    1705177.5 
   42600          113   0.49440804 4.3164246e-05    5166.6796    5561.3489    10728.028    1705177.5 
   42700        113.5   0.49427172 -0.00021151506    5132.5799    5559.8154    10692.395    1705177.5 
   42800          114   0.49416815 -4.1543765e-05    5145.5999    5558.6504     10704.25    1705177.5 
   42900        114.5   0.50148521 0.00022972193    5132.5597    5640.9564    10773.516    1705177.5 
   43000          115    0.4955359 0.00032027912    5243.9736    5574.0356    10818.009    1705177.5 
   43100        115.5   0.49624927 -8.4568972e-05    5076.1141    5582.0599    10658.174    1705177.5 
   43200          116   0.49609048 0.00060933991    5183.7671    5580.2738    10764.041    1705177.5 
   43300        116.5   0.50175675 -8.8706718e-05    5201.9086    5644.0108    10845.919    1705177.5 
   43400          117   0.49937596 0.00019842916     5164.294    5617.2305    10781.525    1705177.5 
   43500        117.5   0.50220837 0.00050178917     5161.625    5649.0908    10810.716    1705177.5 
   43600          118   0.50345803 -0.00043840356    5208.4788    5663.1476    10871.626    1705177.5 
   43700        118.5   0.50105164 0.00050388609    5244.2928    5636.0793    10880.372    1705177.5 
   43800          119   0.50265646 -3.2813665e-05     5141.066    5654.1312    10795.197    1705177.5 
   43900        119.5   0.50237361 -7.7440687e-05    5240.2638    5650.9496    10891.213    1705177.5 
   44000          120   0.49993408 0.00037426004    5167.4575    5623.5085    10790.966    1705177.5 
   44100        120.5   0.50534397 0.00032348271    5135.0685    5684.3617     10819.43    1705177.5 
   44200          121   0.50048266 0.0001024735     5172.085    5629.6793    10801.764    1705177.5 
   44300        121.5   0.50227503 9.8778314e-05    5165.8887    5649.8407    10815.729    1705177.5 
   44400          122    0.4983133 2.4756329e-06    5213.6034    5605.2772    10818.881    1705177.5 
   44500        122.5   0.48932944 -9.3549711e-05    5257.3457    5504.2222    10761.568    1705177.5 
   44600          123   0.49919264 8.7000475e-05    5143.5677    5615.1684    10758.736    1705177.5 
   44700        123.5   0.49748607 -0.00014574841    5193.5085    5595.9721    10789.481    1705177.5 
   44800          124   0.50325952 0.00028466716    5068.1507    5660.9147    10729.065    1705177.5 
   44900        124.5   0.49522022 -0.00040962177    5167.0661    5570.4846    10737.551    1705177.5 
   45000          125   0.50236679 0.00051629797    5059.5649    5650.8728    10710.438    1705177.5 
   45100        125.5   0.49562392 -0.00035886062    5162.7727    5575.0256    10737.798    1705177.5 
   45200          126   0.49791959 0.00066337039    5177.6761    5600.8485    10778.525    1705177.5 
   45300        126.5   0.49265368 -0.00046457394    5156.8535    5541.6149    10698.468    1705177.5 
   45400          127   0.49161193 0.00050026327    5185.5264    5529.8967    10715.423    1705177.5 
   45500        127.5   0.49988492 -0.0003576564    5119.6167    5622.9555    10742.572    1705177.5 
   45600          128   0.50018734 0.00021898994    5197.5153    5626.3573    10823.873    1705177.5 
   45700        128.5   0.49344351 1.6215735e-05    5191.1053    5550.4993    10741.605    1705177.5 
   45800          129   0.50103954 9.2374336e-05    5168.7515    5635.9433    10804.695    1705177.5 
   45900        129.5   0.50353855 0.00026432488    5136.2757    5664.0533    10800.329    1705177.5 
   46000          130   0.49777334 -7.7002985e-05    5148.0928    5599.2035    10747.296    1705177.5 
   46100        130.5   0.50672473 0.00045057159    5108.0883    5699.8931    10807.981    1705177.5 
   46200          131   0.49601795 -0.00053801713    5097.1981    5579.4579    10676.656    1705177.5 
   46300        131.5   0.50020899 0.00044168445    5185.7853    5626.6008    10812.386    1705177.5 
   46400          132   0.50259578 0.00011226483    5098.4092    5653.4486    10751.858    1705177.5 
   46500        132.5   0.50516406 -0.00016366596    5137.5314    5682.3379    10819.869    1705177.5 
   46600          133    0.5002187 0.00013286504     5228.728      5626.71    10855.438    1705177.5 
   46700        133.5   0.50508185 -0.00010534359    5188.7868    5681.4132      10870.2    1705177.5 
   46800          134   0.50675166 0.00052474082    5214.2785     5700.196    10914.475    1705177.5 
   46900        134.5   0.50295618 -0.0001178169    5178.3187    5657.5025    10835.821    1705177.5 
   47000          135   0.49500874 -0.00011455566    5141.2714    5568.1058    10709.377    1705177.5 
   47100        135.5   0.49883756 0.00016301543    5087.5846    5611.1743    10698.759    1705177.5 
   47200          136   0.49726763 -3.7696239e-05    5117.1035     5593.515    10710.618    1705177.5 
   47300        136.5   0.49153002 -8.8806221e-05    5171.3749    5528.9754     10700.35    1705177.5 
   47400          137   0.49508818 0.00012401955    5167.5282    5568.9994    10736.528    1705177.5 
   47500        137.5   0.49677185 6.0736692e-05     5117.373    5587.9381    10705.311    1705177.5 
   47600          138   0.49735761 0.00054195836    5139.8253    5594.5271    10734.352    1705177.5 
   47700        138.5   0.49495851 0.00014335905    5181.3287    5567.5408    10748.869    1705177.5 
   47800          139   0.50196495 0.00016517995    5149.4187    5646.3527    10795.771    1705177.5 
   47900        139.5   0.50380245 7.7957079e-05    5064.0437    5667.0219    10731.066    1705177.5 
   48000          140   0.50199079 0.00035803402    5157.0962    5646.6434     10803.74    1705177.5 
   48100        140.5   0.50483252 -0.00041415785    5134.8009    5678.6086    10813.409    1705177.5 
   48200          141   0.50235576 -0.00013412259    5209.2472    5650.7488    10859.996    1705177.5 
   48300        141.5   0.50143487 7.8309381e-05    5210.3866    5640.3901    10850.777    1705177.5 
   48400          142   0.50595285 0.00045847724    5131.0656    5691.2106    10822.276    1705177.5 
   48500        142.5   0.50169955 0.00014091336    5099.4804    5643.3674    10742.848    1705177.5 
   48600          143   0.50565231 1.8775997e-06    5186.5948      5687.83    10874.425    1705177.5 
   48700        143.5   0.50414798 0.00030668279    5169.0127    5670.9086    10839.921    1705177.5 
   48800          144   0.49461977 -9.0417435e-05    5180.1899    5563.7305     10743.92    1705177.5 
   48900        144.5   0.50127365 6.5709101e-05    5104.3941    5638.5766    10742.971    1705177.5 
   49000          145   0.49456307 0.00026421041    5170.9826    5563.0927    10734.075    1705177.5 
   49100        145.5   0.50201362 -0.00021743985    5078.6019    5646.9002    10725.502    1705177.5 
   49200          146   0.49709473 0.00045510657    5131.8082    5591.5701    10723.378    1705177.5 
   49300        146.5   0.50171026 -0.0001655044    5134.0472    5643.4879    10777.535    1705177.5 
   49400          147   0.50555882 -0.00011801093    5192.5967    5686.7784    10879.375    1705177.5 
   49500        147.5   0.50197704 -5.6293285e-05    5193.4417    5646.4887     10839.93    1705177.5 
   49600          148   0.49945313 0.00018436001    5188.0848    5618.0986    10806.183    1705177.5 
   49700        148.5   0.49963856 -0.00027640854    5172.0997    5620.1843    10792.284    1705177.5 
   49800          149   0.49738504 0.00028450728    5194.0399    5594.8356    10788.876    1705177.5 
   49900        149.5   0.50323561 -0.00052778929    5124.8637    5660.6458    10785.509    1705177.5 
   50000          150   0.50146857 0.00047366658    5184.0568    5640.7692    10824.826    1705177.5 
Loop time of 19.646 on 1 procs for 10000 steps with 7500 atoms

Performance: 219892.470 tau/day, 509.010 timesteps/s
97.5% CPU use with 1 MPI tasks x 1 OpenMP threads

MPI task timing breakdown:
Section |  min time  |  avg time  |  max time  |%varavg| %total
---------------------------------------------------------------
Pair    | 0.37419    | 0.37419    | 0.37419    |   0.0 |  1.90
Bond    | 5.5407     | 5.5407     | 5.5407     |   0.0 | 28.20
Neigh   | 7.1877     | 7.1877     | 7.1877     |   0.0 | 36.59
Comm    | 0.26819    | 0.26819    | 0.26819    |   0.0 |  1.37
Output  | 0.37598    | 0.37598    | 0.37598    |   0.0 |  1.91
Modify  | 5.6479     | 5.6479     | 5.6479     |   0.0 | 28.75
Other   |            | 0.2514     |            |       |  1.28

Nlocal:    7500 ave 7500 max 7500 min
Histogram: 1 0 0 0 0 0 0 0 0 0
Nghost:    311 ave 311 max 311 min
Histogram: 1 0 0 0 0 0 0 0 0 0
Neighs:    25 ave 25 max 25 min
Histogram: 1 0 0 0 0 0 0 0 0 0

Total # of neighbors = 25
Ave neighs/atom = 0.00333333
Ave special neighs/atom = 5.2
Neighbor list builds = 844
Dangerous builds = 71
write_restart restart.time*

#This section  of codes allows looping over the list of T values
clear
OMP_NUM_THREADS environment is not set. Defaulting to 1 thread. (../comm.cpp:94)
  using 1 OpenMP thread(s) per MPI task
next mix_steps
jump in.run_loop loop  #jumps back to loop label
read_restart restart.time*
  restoring atom style molecular from restart
  orthogonal box = (-59.7347 -59.7347 -59.7347) to (59.7347 59.7347 59.7347)
  1 by 1 by 1 MPI processor grid
  restoring pair style lj/cut from restart
  restoring bond style harmonic from restart
  restoring angle style harmonic from restart
  7500 atoms
  7000 bonds
  6500 angles
  2 = max # of 1-2 neighbors
  2 = max # of 1-3 neighbors
  4 = max # of 1-4 neighbors
  6 = max # of special neighbors
  special bonds CPU = 0.00698209 secs
  read_restart CPU = 0.0173051 secs
# this reads in latest restart file, * is wildcard for timestep


# THERMAL
timestep ${t_step}
timestep 0.005
thermo   100
thermo_style custom step time temp press pe ke etotal vol
thermo_modify norm no


# DUMP OUTPUT
dump  1  all custom 5000 output_T_${T}_time_*.dump id mol type x y z vx vy vz
dump  1  all custom 5000 output_T_0.5_time_*.dump id mol type x y z vx vy vz
# dumps all positions etc every N  steps
dump_modify 1 sort id

# FIX
fix 2 all nph iso 0.0000001 0.0000001 10   #reduced target pressure here
fix 3 all langevin ${T} ${T} 1 123456 #as above
fix 3 all langevin 0.5 ${T} 1 123456 
fix 3 all langevin 0.5 0.5 1 123456 
run ${mix_steps}
run 30000
Neighbor list info ...
  update every 1 steps, delay 10 steps, check yes
  max neighbors/atom: 2000, page size: 100000
  master list distance cutoff = 1.42
  ghost atom cutoff = 1.9
  binsize = 0.71, bins = 169 169 169
  1 neighbor lists, perpetual/occasional/extra = 1 0 0
  (1) pair lj/cut, perpetual
      attributes: half, newton on
      pair build: half/bin/newton
      stencil: half/bin/3d/newton
      bin: standard
Per MPI rank memory allocation (min/avg/max) = 30.02 | 30.02 | 30.02 Mbytes
Step Time Temp Press PotEng KinEng TotEng Volume 
   50000            0   0.50146857 0.00047366658    5184.0568    5640.7692    10824.826    1705177.5 
   50100          0.5   0.49360512 -0.00013454831    5189.8848    5552.3171    10742.202    1705767.7 
   50200            1   0.50071232 -6.2220299e-05    5193.0625    5632.2625    10825.325    1705843.1 
   50300          1.5    0.5030598 0.0004860691    5155.8326    5658.6682    10814.501    1706530.1 
   50400            2   0.50467594 -0.0004320696    5174.8427    5676.8474     10851.69    1708789.6 
   50500          2.5   0.50619316 0.00054545954    5178.6814    5693.9137    10872.595    1710415.2 
   50600            3   0.49304022 -0.00011652947    5298.1609    5545.9629    10844.124    1713975.3 
   50700          3.5   0.49758467 0.00027226654    5216.0582    5597.0812    10813.139    1718048.5 
   50800            4    0.4988248 -0.00017630014    5299.2935    5611.0307    10910.324    1722291.4 
   50900          4.5   0.49533378 0.00048233889     5249.053     5571.762    10820.815    1726893.5 
   51000            5   0.49856912 -0.00053170785    5156.5006    5608.1547    10764.655    1732059.8 
   51100          5.5    0.4989971 0.00062154723    5222.3292    5612.9688    10835.298    1736474.1 
   51200            6   0.50308216 0.0004076565    5071.0342    5658.9197    10729.954    1741793.8 
   51300          6.5   0.50376295 -0.00029824013    5076.0557    5666.5776    10742.633      1747253 
   51400            7    0.4941969 0.00027601352    5136.8732    5558.9739    10695.847    1751345.7 
   51500          7.5   0.49045102 -0.00054161195     5144.596    5516.8383    10661.434    1756046.7 
   51600            8   0.49855312 0.00069853077    5053.7639    5607.9748    10661.739    1759132.1 
   51700          8.5   0.49507473 1.4015063e-05    5167.3364    5568.8481    10736.184    1763097.9 
   51800            9   0.50110988 0.00011224518    5246.2894    5636.7345    10883.024    1766083.6 
   51900          9.5   0.50187217 4.2773317e-05    5140.8786    5645.3091    10786.188    1768971.3 
   52000           10   0.50748126 0.00011150825     5151.107     5708.403     10859.51    1771103.3 
   52100         10.5    0.5068663 0.00028632993    5155.1168    5701.4856    10856.602    1773318.9 
   52200           11    0.5039033 -0.00018197266    5140.8714    5668.1563    10809.028    1776251.3 
   52300         11.5    0.5020829 0.0004808137    5171.3854    5647.6794    10819.065      1778766 
   52400           12   0.50505556 -0.00010568391    5095.9144    5681.1174    10777.032    1782624.5 
   52500         12.5   0.49662235 0.0006814518    5174.0179    5586.2565    10760.274    1786357.2 
   52600           13   0.49266435 -0.00066577489    5159.2675    5541.7349    10701.002      1791562 
   52700         13.5   0.49682535 0.00034896216    5129.1602    5588.5399      10717.7    1795240.1 
   52800           14   0.50350067 -0.00010303638    5159.1564    5663.6273    10822.784    1799427.6 
   52900         14.5   0.50199372 0.00035408404    5241.7241    5646.6763      10888.4    1803793.9 
   53000           15   0.50736971 -0.00011144911    5140.9268    5707.1482    10848.075    1808891.7 
   53100         15.5   0.50143558 0.00033334499    5182.9546    5640.3981    10823.353    1814125.4 
   53200           16   0.50075004 0.00011152179    5079.1569    5632.6869    10711.844    1820307.3 
   53300         16.5   0.50386588 -6.329687e-05      5076.93    5667.7354    10744.665    1826659.2 
   53400           17   0.50318416 6.9284297e-05    5135.7647    5660.0671    10795.832    1831787.8 
   53500         17.5   0.50087777 2.7185823e-05    5249.6555    5634.1236    10883.779    1836555.2 
   53600           18   0.50757965 -8.6110146e-05    5134.5183    5709.5097    10844.028    1840863.6 
   53700         18.5   0.49798215 -0.00014829513    5207.2158    5601.5522    10808.768      1844100 
   53800           19   0.49332484 7.7916998e-05     5215.446    5549.1645     10764.61    1847301.4 
   53900         19.5    0.5056885 0.00028859132    5202.2877    5688.2371    10890.525    1850824.1 
   54000           20    0.5018054 -0.00034691662    5170.5761     5644.558    10815.134    1854697.7 
   54100         20.5   0.49623652 0.00054737429    5285.2919    5581.9165    10867.208    1857570.9 
   54200           21   0.49893006 -0.00059984492    5182.3828    5612.2148    10794.598    1862107.8 
   54300         21.5   0.49262304 0.00057598142    5127.9265    5541.2703    10669.197      1865359 
   54400           22   0.49302752 -0.00015908599    5186.5117    5545.8201    10732.332    1869722.1 
   54500         22.5   0.49426988 0.00013316629     5250.554    5559.7947    10810.349    1873191.5 
   54600           23     0.501678 -0.00018791334    5216.8734     5643.125    10859.998      1877053 
   54700         23.5   0.50359259 0.00019110867    5160.1486    5664.6613     10824.81    1879935.2 
   54800           24   0.49487534 6.069686e-05    5159.6703    5566.6053    10726.276      1883020 
   54900         24.5   0.50065416 4.8164467e-05    5208.3956    5631.6083    10840.004    1885663.9 
   55000           25    0.5112459 -0.00010438229     5287.643    5750.7495    11038.393    1887631.4 
   55100         25.5   0.50669106 -3.8978393e-05     5220.187    5699.5144    10919.701    1889597.7 
   55200           26   0.50219117 0.00038232155    5190.6543    5648.8974    10839.552    1892072.7 
   55300         26.5   0.50425656 -4.6034966e-05    5108.1731    5672.1299    10780.303    1895269.9 
   55400           27   0.50145788 6.5434571e-05    5160.0604    5640.6489    10800.709      1898241 
   55500         27.5   0.50155304 3.5953777e-05    5203.5491    5641.7194    10845.269    1901518.9 
   55600           28   0.49896873 0.00010484198    5154.4535    5612.6497    10767.103      1904671 
   55700         28.5   0.50090411 -0.00023142426    5194.0518    5634.4199    10828.472    1908171.7 
   55800           29   0.50161523 0.00021834205    5197.0125    5642.4189    10839.431    1910802.1 
   55900         29.5   0.50140058 2.3917061e-05    5179.5924    5640.0044    10819.597    1914229.3 
   56000           30   0.50302808 0.00011875848    5137.4703    5658.3114    10795.782      1917444 
   56100         30.5   0.50881394 0.00011661555     5172.412    5723.3937    10895.806    1922153.5 
   56200           31   0.50184231 -9.8232756e-05    5273.6435    5644.9732    10918.617    1925346.7 
   56300         31.5   0.50336449 -5.7343344e-05    5184.4548    5662.0955     10846.55    1929024.6 
   56400           32    0.5006417 0.00039307323    5164.8223    5631.4682    10796.291    1931141.3 
   56500         32.5   0.49721072 -0.00041440293    5270.3738    5592.8747    10863.249    1934829.9 
   56600           33    0.4994684 0.00039903128    5200.5661    5618.2703    10818.836    1937448.8 
   56700         33.5    0.4988213 -0.00037219543    5244.8049    5610.9913    10855.796    1940581.9 
   56800           34   0.49807239 5.4041927e-05    5254.3155    5602.5673    10856.883    1942576.6 
   56900         34.5   0.50340495 0.00018004375    5158.5184    5662.5506    10821.069    1944987.7 
   57000           35   0.49173717 -0.00014864683    5193.3021    5531.3055    10724.608    1947591.8 
   57100         35.5   0.49588945 0.00058653407    5144.1556    5578.0125    10722.168    1950591.1 
   57200           36   0.50285827 -0.00029062178    5125.7409    5656.4012    10782.142    1955451.1 
   57300         36.5   0.50046675 -0.00021278115    5229.5355    5629.5002    10859.036    1958350.6 
   57400           37   0.50463844 0.0003712272    5169.2836    5676.4255    10845.709      1960092 
   57500         37.5   0.50366833 0.00029176619    5221.6075    5665.5132    10887.121    1962755.4 
   57600           38   0.50099627 -0.00048840983    5159.9795    5635.4565    10795.436    1966630.5 
   57700         38.5   0.49343329 0.0004416492    5166.9388    5550.3844    10717.323    1969268.5 
   57800           39   0.50235757 -0.00050011004    5182.1096    5650.7691    10832.879    1973350.4 
   57900         39.5   0.50581135 0.00060557171    5164.5274    5689.6189    10854.146    1976267.8 
   58000           40   0.50602637 -0.00039771223    5135.8117    5692.0377    10827.849    1980058.5 
   58100         40.5   0.50517791 0.00033630447    5158.9974    5682.4937    10841.491    1982875.5 
   58200           41   0.49954547 3.773146e-05    5183.8461    5619.1372    10802.983    1986308.2 
   58300         41.5   0.50464495 -0.00023196783    5042.2147    5676.4987    10718.713      1989755 
   58400           42     0.497018 0.00072249553     5114.735     5590.707    10705.442    1992707.3 
   58500         42.5     0.495865 -0.00072064041    5116.3612    5577.7375    10694.099    1997402.8 
   58600           43   0.49064254 0.00032116176    5142.0205    5518.9926    10661.013    1999503.9 
   58700         43.5    0.4942848 -0.00059143374    5128.6696    5559.9625    10688.632    2002420.7 
   58800           44   0.49620989 -2.6014964e-05     5211.024     5581.617    10792.641      2003190 
   58900         44.5   0.49576889 5.0268386e-05    5189.9746    5576.6563    10766.631    2004101.1 
   59000           45   0.50099316 3.1572178e-07    5138.4286    5635.4216     10773.85    2005124.4 
   59100         45.5   0.50070652 0.0002572574    5150.8329    5632.1973     10783.03    2006366.8 
   59200           46   0.50146779 -0.00017250333    5181.7365    5640.7604    10822.497    2008253.5 
   59300         46.5   0.49239162 0.00031125938    5096.8278    5538.6671    10635.495    2010490.3 
   59400           47   0.50201709 -8.3485968e-05    5117.6952    5646.9392    10764.634    2012908.7 
   59500         47.5   0.50056943 0.0001161274    5157.9328    5630.6553    10788.588    2015241.2 
   59600           48   0.50618627 -0.00022341773    5114.4227    5693.8362    10808.259    2017156.6 
   59700         48.5   0.50305283 -0.00013766787    5189.6546    5658.5897    10848.244    2018718.5 
   59800           49   0.49705341 0.00037153259    5217.0736    5591.1053    10808.179    2019755.9 
   59900         49.5   0.49344297 -0.00059946933    5237.8068    5550.4932      10788.3    2021590.5 
   60000           50   0.49819448 0.00062072706    5191.5969    5603.9407    10795.538    2022889.6 
   60100         50.5   0.49550592 -0.00021079212    5230.7193    5573.6984    10804.418    2025354.1 
   60200           51   0.49582905 1.9745734e-05    5233.4427     5577.333    10810.776    2028051.1 
   60300         51.5   0.50034477 0.00023794249    5122.3288    5628.1281    10750.457    2031055.2 
   60400           52   0.50285152 0.00013810302    5144.0803    5656.3253    10800.406      2034336 
   60500         52.5    0.5010864 -3.2361863e-06    5114.7275    5636.4703    10751.198    2038340.1 
   60600           53   0.50270239 0.00023688943    5129.4064    5654.6479    10784.054    2043001.8 
   60700         53.5   0.49222757 -0.00017409954    5154.1727    5536.8218    10690.995    2048190.9 
   60800           54   0.49605609 0.00016048132    5087.6501    5579.8869    10667.537    2052642.3 
   60900         54.5   0.49393788 -0.00010789148     5127.061    5556.0602    10683.121    2056900.3 
   61000           55   0.49154422 -0.00016091287    5108.4545    5529.1352     10637.59    2060033.2 
   61100         55.5   0.49781636 0.00010518446    5100.8002    5599.6874    10700.488    2062601.5 
   61200           56    0.4990796 0.00010552697    5156.8446    5613.8968    10770.741    2064872.2 
   61300         56.5   0.49040842 -0.00024819378    5159.1152    5516.3591    10675.474    2067666.3 
   61400           57   0.48859861 0.00013221251    5213.0007    5496.0015    10709.002    2070038.4 
   61500         57.5   0.49742492 -7.151385e-05    5151.1044    5595.2842    10746.389    2072485.2 
   61600           58   0.50235138 -8.5756969e-05    5172.3794    5650.6995    10823.079    2075149.5 
   61700         58.5   0.50282758 0.00026891535    5206.1841    5656.0561     10862.24    2077890.9 
   61800           59   0.49737353 -0.00022537514    5126.0321    5594.7061    10720.738      2080721 
   61900         59.5   0.50460667 0.00015198594    5134.4028    5676.0681    10810.471    2083388.3 
   62000           60    0.5022749 -0.00036699559    5142.4551    5649.8392    10792.294    2086583.8 
   62100         60.5   0.50033254 0.00055535551    5143.4242    5627.9905    10771.415    2088554.6 
   62200           61   0.50067456 -0.00032347582    5051.1499    5631.8378    10682.988    2092186.2 
   62300         61.5    0.4923049 0.00010874659    5126.1777    5537.6917    10663.869    2094345.9 
   62400           62   0.49717387 0.0003206639    5141.2821    5592.4602    10733.742    2096455.1 
   62500         62.5   0.49761311 -0.00020812381    5194.9923     5597.401    10792.393      2100135 
   62600           63   0.50026029 0.00013434796    5199.2069    5627.1779    10826.385    2103401.7 
   62700         63.5    0.5024031 -4.3747246e-05    5215.3188    5651.2812      10866.6    2106892.4 
   62800           64   0.50373682 0.00033645953    5167.9337    5666.2836    10834.217    2110510.6 
   62900         64.5   0.49785942 -0.0002692752    5190.4332    5600.1716    10790.605    2114272.8 
   63000           65   0.50025001 -9.5257292e-05    5144.4698    5627.0622    10771.532    2117847.7 
   63100         65.5   0.49628518 5.0687653e-05    5164.4799    5582.4639    10746.944    2120113.4 
   63200           66    0.5061006 -2.6974574e-05    5243.3752    5692.8726    10936.248    2122399.1 
   63300         66.5   0.50644535 8.1743722e-06    5172.0288    5696.7505    10868.779    2124671.4 
   63400           67   0.51485479 0.00026000951    5199.3631    5791.3442    10990.707    2127021.7 
   63500         67.5   0.51186592 0.00016592303    5236.9729    5757.7239    10994.697    2130053.1 
   63600           68   0.50592196 -0.00018881757    5173.1816    5690.8631    10864.045    2133514.7 
   63700         68.5   0.50494711 0.00055033494     5127.311    5679.8976    10807.209    2137396.1 
   63800           69   0.50005921 -0.00041812598    5154.8646    5624.9161    10779.781      2143327 
   63900         69.5    0.4986222 0.00056365606    5140.6586    5608.7519     10749.41    2147609.9 
   64000           70   0.49637034 -1.4610867e-05    5099.6922    5583.4217    10683.114    2153874.9 
   64100         70.5   0.49947514 -0.0001832024    5105.5482    5618.3461    10723.894    2160441.1 
   64200           71   0.49780037 0.00049880512    5140.8239    5599.5074    10740.331      2166113 
   64300         71.5   0.49744764 -0.00030775377    5095.7661    5595.5398    10691.306    2172594.2 
   64400           72   0.50140569 0.00020577489    5061.5904     5640.062    10701.652    2177339.7 
   64500         72.5   0.50152004 0.00011561655    5052.2798    5641.3481    10693.628    2182176.2 
   64600           73   0.50261356 5.2640286e-05    5102.5747    5653.6487    10756.223    2186613.2 
   64700         73.5   0.49590205 5.2113577e-05    5163.6173    5578.1542    10741.772    2190918.7 
   64800           74   0.50674359 -0.00011270511    5089.6392    5700.1052    10789.744    2194778.6 
   64900         74.5   0.50033364 -8.5146614e-05     5151.403     5628.003    10779.406    2197326.8 
   65000           75   0.49841011 0.00021625523     5103.651    5606.3661    10710.017    2199238.9 
   65100         75.5   0.49624327 0.0004086682     5112.012    5581.9924    10694.004      2201497 
   65200           76   0.49674325 -0.00039568323    5094.2272    5587.6165    10681.844    2205057.6 
   65300         76.5   0.49655804 0.0007000976    5075.6092    5585.5331    10661.142    2207424.2 
   65400           77   0.49639274 -0.00039240861    5068.9945    5583.6737    10652.668    2211656.4 
   65500         77.5   0.49178603 0.00025646105    5209.7824    5531.8551    10741.637    2215301.2 
   65600           78   0.50121026 -0.00013488533    5150.8536    5637.8637    10788.717    2219773.9 
   65700         78.5   0.50276137 0.00010120134    5197.1635    5655.3113    10852.475    2224015.9 
   65800           79    0.4989689 -0.00014314318    5204.9557    5612.6517    10817.607    2227403.1 
[...]
  303500        467.5   0.49055918 -1.8840075e-06     5154.948    5518.0549    10673.003     75755748 
  303600          468   0.49859845 9.8451979e-07    5122.5972    5608.4847    10731.082     75895044 
  303700        468.5   0.48880856 -3.518023e-06    5106.8991    5498.3631    10605.262     76003333 
  303800          469   0.49986712 9.794056e-06    5186.3282    5622.7553    10809.084     76098995 
  303900        469.5   0.50699237 -1.056412e-05    5157.0576    5702.9037    10859.961     76227381 
  304000          470   0.50673713 1.6948642e-05    5155.4844    5700.0326    10855.517     76338079 
  304100        470.5   0.50339629 -1.4337085e-05    5164.7257    5662.4532    10827.179     76470695 
  304200          471   0.50039767 1.5441417e-05    5164.5586    5628.7232    10793.282     76573093 
  304300        471.5   0.49997603 -8.0684377e-06    5120.1615    5623.9804    10744.142     76699635 
  304400          472   0.50853683  1.35558e-05    5080.9769    5720.2765    10801.253     76806826 
  304500        472.5   0.50612097 -5.692239e-06    5220.3839    5693.1018    10913.486     76957712 
  304600          473   0.50695657 4.3875617e-06    5193.3865     5702.501    10895.887     77087332 
  304700        473.5   0.50068145 1.0074787e-05    5248.6592    5631.9153    10880.574     77235430 
  304800          474   0.51034524 -7.6762266e-07    5134.0849    5740.6184    10874.703     77412393 
  304900        474.5   0.50626729 1.0790636e-05    5154.4862    5694.7476    10849.234     77573954 
  305000          475   0.50244797 -1.6872688e-05    5201.1145     5651.786    10852.901     77790731 
  305100        475.5   0.50114749 9.0989948e-06    5201.3505    5637.1576    10838.508     77928851 
  305200          476   0.50063454 -2.1050081e-05    5165.5903    5631.3876    10796.978     78065319 
  305300        476.5   0.49335988 1.5399516e-05    5109.4925    5549.5586    10659.051     78122378 
  305400          477   0.49604119 -1.157693e-05    5176.9844    5579.7193    10756.704     78207376 
  305500        477.5   0.50181226 1.6798222e-05     5162.442    5644.6352    10807.077     78249588 
  305600          478   0.49907774 -4.6605331e-06    5239.4343    5613.8759     10853.31     78384860 
  305700        478.5   0.49964638 6.1641018e-06    5161.7364    5620.2723    10782.009     78508619 
  305800          479    0.5027564 -1.4512575e-06    5144.1092    5655.2554    10799.365     78635406 
  305900        479.5   0.50094912 -1.0876894e-06    5146.7727    5634.9261    10781.699     78756253 
  306000          480   0.50186728 2.4448562e-06    5152.3345    5645.2541    10797.589     78854937 
  306100        480.5    0.4983804 -5.4537566e-06    5076.8479    5606.0319     10682.88     78948162 
  306200          481    0.5004902 6.9450694e-06    5099.9078     5629.764    10729.672     79014021 
  306300        481.5   0.50351448 4.5840687e-06    5116.5804    5663.7826    10780.363     79073607 
  306400          482    0.5018202 -7.8268847e-06    5149.2309    5644.7245    10793.955     79159735 
  306500        482.5   0.49470672 1.0444399e-05     5166.931    5564.7085     10731.64     79205096 
  306600          483   0.50040818 -3.7584109e-06    5148.1036    5628.8414    10776.945     79276947 
  306700        483.5   0.49974603 -1.0236916e-06    5090.5894    5621.3932    10711.983     79368299 
  306800          484   0.49656051 1.0618336e-05    5129.6012    5585.5609    10715.162     79466070 
  306900        484.5   0.50561664 6.882893e-06     5131.077    5687.4288    10818.506     79631521 
  307000          485   0.50628505 2.9825706e-07    5146.3051    5694.9474    10841.252     79843336 
  307100        485.5   0.49307833 -4.0708111e-06    5196.0359    5546.3916    10742.428     80045534 
  307200          486   0.49801426 -8.182006e-06    5171.6942    5601.9134    10773.608     80207892 
  307300        486.5   0.49228746 1.1103668e-05    5282.0762    5537.4955    10819.572     80287454 
  307400          487   0.49905201 -1.0233694e-05    5219.1142    5613.5865    10832.701     80437097 
  307500        487.5   0.49826886 1.5600605e-05    5229.9731    5604.7773     10834.75     80514027 
  307600          488   0.51239621 -1.0170254e-05    5110.0163    5763.6888    10873.705     80637936 
  307700        488.5   0.50036483 1.0521164e-05    5216.8545    5628.3538    10845.208     80728508 
  307800          489   0.50219555 6.4663894e-06    5223.1071    5648.9466    10872.054     80874110 
  307900        489.5   0.50938958 -1.3161353e-05     5221.136    5729.8687    10951.005     81034756 
  308000          490   0.48858478 1.8864327e-05    5214.5222    5495.8459    10710.368     81089955 
  308100        490.5   0.50027275 -1.9040459e-05      5201.52     5627.318    10828.838     81205387 
  308200          491   0.50725042 1.918392e-05    5216.5269    5705.8064    10922.333     81278276 
  308300        491.5   0.50515593 -1.7417768e-05     5266.702    5682.2464    10948.948     81410315 
  308400          492   0.50333205 1.1312434e-05    5179.2199    5661.7305     10840.95     81468431 
  308500        492.5   0.49390403 -9.6316362e-07    5199.4899    5555.6795    10755.169     81588330 
  308600          493   0.50743531 1.0764998e-05     5181.921    5707.8861    10889.807     81695836 
  308700        493.5   0.50803211 -9.4899882e-06    5184.8503    5714.5992     10899.45     81864213 
  308800          494   0.49994363 1.1142209e-05    5153.7911    5623.6159    10777.407     81986922 
  308900        494.5   0.49569176 -1.3446917e-05    5135.2576    5575.7888    10711.046     82127939 
  309000          495   0.50306619 1.1850622e-05    5161.3374      5658.74    10820.077     82209542 
  309100        495.5    0.5030751 -4.7669503e-06     5250.515    5658.8402    10909.355     82345091 
  309200          496   0.50282176 5.4524586e-06    5264.9118    5655.9906    10920.902     82433575 
  309300        496.5   0.50363758 7.0813717e-06    5169.7794    5665.1674    10834.947     82548458 
  309400          497   0.49495158 -7.2746608e-06    5235.4089    5567.4629    10802.872     82670846 
  309500        497.5   0.50294048 6.2167045e-06    5184.3454     5657.326    10841.671     82770719 
  309600          498   0.49580476 2.4875049e-07    5163.4491    5577.0599    10740.509     82888729 
  309700        498.5   0.49345087 1.3070873e-06      5186.07    5550.5821    10736.652     82985263 
  309800          499    0.4925479 -6.1409431e-06    5112.7398     5540.425    10653.165     83096755 
  309900        499.5    0.5025591 5.8886244e-06    5161.8573    5653.0361    10814.893     83206844 
  310000          500   0.50783728 -6.8760546e-06    5054.7428    5712.4076     10767.15     83303922 
Loop time of 994.524 on 1 procs for 100000 steps with 7500 atoms

Performance: 43437.855 tau/day, 100.551 timesteps/s
94.8% CPU use with 1 MPI tasks x 1 OpenMP threads

MPI task timing breakdown:
Section |  min time  |  avg time  |  max time  |%varavg| %total
---------------------------------------------------------------
Pair    | 5.0902     | 5.0902     | 5.0902     |   0.0 |  0.51
Bond    | 61.461     | 61.461     | 61.461     |   0.0 |  6.18
Neigh   | 840.74     | 840.74     | 840.74     |   0.0 | 84.54
Comm    | 26.791     | 26.791     | 26.791     |   0.0 |  2.69
Output  | 3.4862     | 3.4862     | 3.4862     |   0.0 |  0.35
Modify  | 55.404     | 55.404     | 55.404     |   0.0 |  5.57
Other   |            | 1.553      |            |       |  0.16

Nlocal:    7500 ave 7500 max 7500 min
Histogram: 1 0 0 0 0 0 0 0 0 0
Nghost:    120 ave 120 max 120 min
Histogram: 1 0 0 0 0 0 0 0 0 0
Neighs:    0 ave 0 max 0 min
Histogram: 1 0 0 0 0 0 0 0 0 0

Total # of neighbors = 0
Ave neighs/atom = 0
Ave special neighs/atom = 5.2
Neighbor list builds = 9538
Dangerous builds = 5849

unfix 2
unfix 3
fix 4 all nve
fix 5 all langevin ${T} ${T} 1 123456
fix 5 all langevin 0.5 ${T} 1 123456
fix 5 all langevin 0.5 0.5 1 123456
fix recen1 all recenter INIT INIT INIT


# RUN
run ${run_steps}
run 10000
Per MPI rank memory allocation (min/avg/max) = 931.6 | 931.6 | 931.6 Mbytes
Step Time Temp Press PotEng KinEng TotEng Volume 
  310000          500   0.50783728 -6.8760546e-06    5054.7428    5712.4076     10767.15     83303922 
  310100        500.5   0.50209662 9.582772e-06    5115.1301    5647.8338    10762.964     83303922 
  310200          501   0.49488201 -1.0601573e-05    5149.1862    5566.6803    10715.866     83303922 
  310300        501.5   0.49481411 1.5007512e-05     5164.343    5565.9165     10730.26     83303922 
  310400          502   0.49564439 -2.0708411e-05    5054.3762    5575.2559    10629.632     83303922 
  310500        502.5   0.49714748 1.8668699e-05    5208.4372    5592.1634    10800.601     83303922 
  310600          503   0.49801156 -5.4316492e-06    5143.8344     5601.883    10745.717     83303922 
  310700        503.5   0.49490567 2.7032858e-06    5126.5191    5566.9465    10693.466     83303922 
  310800          504    0.5009827 -6.0268282e-06    5160.3684    5635.3039    10795.672     83303922 
  310900        504.5   0.49684091 5.0272259e-06    5060.9521     5588.715    10649.667     83303922 
  311000          505   0.50119465 3.945965e-06    4927.5607     5637.688    10565.249     83303922 
  311100        505.5   0.49506279 5.4703125e-06    5114.6184    5568.7138    10683.332     83303922 
  311200          506   0.49535508 -5.2600944e-07    5130.1481    5572.0016     10702.15     83303922 
  311300        506.5   0.49098541 6.102028e-07    5139.6627    5522.8494    10662.512     83303922 
  311400          507   0.49260826 -2.6320772e-07     5201.122     5541.104    10742.226     83303922 
  311500        507.5   0.49888088 -4.8859318e-06    5180.1847    5611.6615    10791.846     83303922 
  311600          508    0.5000117 1.0003132e-05    5098.5615    5624.3816    10722.943     83303922 
  311700        508.5    0.4943956 -3.4409476e-06     5139.179    5561.2089    10700.388     83303922 
  311800          509   0.49911529 6.0221727e-08    5110.5071    5614.2983    10724.805     83303922 
  311900        509.5   0.49510676 -1.0861365e-06    5112.8876    5569.2084    10682.096     83303922 
  312000          510   0.49807349 1.8565287e-07     5127.399    5602.5796    10729.979     83303922 
  312100        510.5   0.49970938 5.1668069e-06    5165.7021    5620.9809    10786.683     83303922 
  312200          511   0.49628265 -5.2654297e-06    5170.8489    5582.4354    10753.284     83303922 
  312300        511.5   0.50216579 8.2992214e-06    5159.2686    5648.6119    10807.881     83303922 
  312400          512   0.50450276 -5.5941416e-06    5267.6633    5674.8993    10942.563     83303922 
  312500        512.5   0.50164148 9.723572e-06    5249.3326    5642.7142    10892.047     83303922 
  312600          513   0.50222715 2.7722573e-06     5160.631    5649.3021    10809.933     83303922 
  312700        513.5    0.5018891 -2.0670647e-07    5140.3097    5645.4995    10785.809     83303922 
  312800          514   0.50166083 2.222565e-07    5146.0977    5642.9319     10789.03     83303922 
  312900        514.5   0.49940637 1.3940684e-05    5097.6737    5617.5726    10715.246     83303922 
  313000          515   0.49439968 8.6585831e-07    5131.1766    5561.2548    10692.431     83303922 
  313100        515.5   0.49537416 6.9216489e-07    5104.1951    5572.2162    10676.411     83303922 
  313200          516    0.5022735 1.1069123e-05    5098.9437    5649.8235    10748.767     83303922 
  313300        516.5   0.49509055 -1.8566683e-05     5176.654     5569.026     10745.68     83303922 
  313400          517    0.5040988 1.6391387e-05    5124.4479    5670.3553    10794.803     83303922 
  313500        517.5   0.50179216 -1.133251e-05     5198.078    5644.4092    10842.487     83303922 
  313600          518   0.50156076 9.6929121e-06    5167.9824    5641.8062    10809.789     83303922 
  313700        518.5   0.50025005 -2.3677576e-07    5211.2471    5627.0627     10838.31     83303922 
  313800          519   0.50350601 -1.5763673e-06    5179.2134    5663.6873    10842.901     83303922 
  313900        519.5   0.49839505 5.1528439e-06     5176.027    5606.1967    10782.224     83303922 
  314000          520   0.50055296 -3.659638e-06    5148.1736    5630.4699    10778.644     83303922 
  314100        520.5   0.49109035 1.0662996e-05    5205.8168    5524.0297    10729.846     83303922 
  314200          521   0.49721295 1.2948934e-06    5098.4651    5592.8999    10691.365     83303922 
  314300        521.5   0.50235996 2.9403982e-06    5061.5351     5650.796    10712.331     83303922 
  314400          522   0.50156888 5.8868884e-07    5093.3128    5641.8975     10735.21     83303922 
  314500        522.5      0.50357 -1.2698552e-06     5086.858    5664.4072    10751.265     83303922 
  314600          523   0.50187548 8.5657741e-06    5212.9213    5645.3464    10858.268     83303922 
  314700        523.5   0.50866495 1.6973107e-06    5171.0553    5721.7176    10892.773     83303922 
  314800          524   0.50197209 6.7459612e-07    5205.1847    5646.4331    10851.618     83303922 
  314900        524.5   0.50633479 7.8556719e-06    5175.6996    5695.5069    10871.206     83303922 
  315000          525   0.51098935 -2.9450712e-07     5210.047    5747.8637    10957.911     83303922 
  315100        525.5       0.4998 3.5808997e-06    5245.5192    5622.0003    10867.519     83303922 
  315200          526   0.50072907 2.6241454e-06    5201.7505    5632.4509    10834.201     83303922 
  315300        526.5   0.50585348 9.9600141e-06    5141.0604    5690.0929    10831.153     83303922 
  315400          527   0.50412681 2.228889e-06    5202.0032    5670.6704    10872.674     83303922 
  315500        527.5    0.5034723 -2.4241643e-06    5151.7671    5663.3082    10815.075     83303922 
  315600          528   0.50365699 1.2191256e-05    5069.1903    5665.3857    10734.576     83303922 
  315700        528.5   0.49998705 -1.0973346e-05    5167.0914    5624.1044    10791.196     83303922 
  315800          529   0.49797846 1.2359889e-05      5219.62    5601.5107    10821.131     83303922 
  315900        529.5   0.50163249 -4.1258627e-06    5096.6659    5642.6131    10739.279     83303922 
  316000          530   0.49652527 8.5385347e-06    5166.2706    5585.1645    10751.435     83303922 
  316100        530.5   0.50894886 -8.457681e-07    5094.4203    5724.9113    10819.332     83303922 
  316200          531   0.49753768 1.3819572e-05    5122.4465    5596.5526    10718.999     83303922 
  316300        531.5   0.49553908 -1.433555e-05    5176.4738    5574.0713    10750.545     83303922 
  316400          532   0.49291231 2.0770243e-05    5087.4281    5544.5242    10631.952     83303922 
  316500        532.5   0.49480575 -1.0201853e-05    5092.3293    5565.8225    10658.152     83303922 
  316600          533   0.49497673 1.475561e-05    5114.3786    5567.7458    10682.124     83303922 
  316700        533.5    0.4968761 -1.1649023e-05    5113.3819    5589.1109    10702.493     83303922 
  316800          534   0.49476188 1.5550349e-05    5153.3522     5565.329    10718.681     83303922 
  316900        534.5   0.50068045 -5.8155972e-06    5272.0899     5631.904    10903.994     83303922 
  317000          535   0.50267105 -2.2223074e-06    5209.7764    5654.2953    10864.072     83303922 
  317100        535.5   0.50316859 8.2818587e-06    5230.6074    5659.8919    10890.499     83303922 
  317200          536   0.50013762 -7.6399125e-06    5232.0491     5625.798    10857.847     83303922 
  317300        536.5   0.50175204 6.8488799e-06    5187.2084    5643.9578    10831.166     83303922 
  317400          537   0.50223581 -2.1950239e-06    5227.4039    5649.3995    10876.803     83303922 
  317500        537.5   0.49469511 2.0454842e-05    5221.8233    5564.5779    10786.401     83303922 
  317600          538   0.50796772 -1.448802e-05    5184.4769    5713.8749    10898.352     83303922 
  317700        538.5   0.50206021 1.3153966e-05    5165.7114    5647.4242    10813.136     83303922 
  317800          539   0.49745694 -5.4711385e-06     5169.681    5595.6444    10765.325     83303922 
  317900        539.5   0.50071185 2.1500839e-05    5112.2027    5632.2573     10744.46     83303922 
  318000          540    0.5083242 -9.5292811e-06    5126.0992    5717.8848    10843.984     83303922 
  318100        540.5   0.50452827 1.804516e-05     5190.388    5675.1863    10865.574     83303922 
  318200          541   0.50476951 -5.8894538e-06    5167.5967    5677.8999    10845.497     83303922 
  318300        541.5   0.50387736 5.4329453e-06    5167.5082    5667.8645    10835.373     83303922 
  318400          542   0.49725958 -7.8685907e-06    5156.2352    5593.4244     10749.66     83303922 
  318500        542.5   0.50015206 9.3345068e-06    5115.9634    5625.9604    10741.924     83303922 
  318600          543   0.50375992 -8.9882499e-06    5197.7045    5666.5434    10864.248     83303922 
  318700        543.5   0.49867466 8.9153771e-06    5255.1807    5609.3419    10864.523     83303922 
  318800          544   0.49952671 5.2890492e-06    5256.1662    5618.9262    10875.092     83303922 
  318900        544.5   0.49964309 -2.0279227e-06    5200.9806    5620.2353    10821.216     83303922 
  319000          545   0.49869811 6.5990349e-06    5204.6137    5609.6057    10814.219     83303922 
  319100        545.5   0.49317428 -1.0370415e-05    5228.5617    5547.4709    10776.033     83303922 
  319200          546   0.50058172 1.5480468e-05     5077.431    5630.7935    10708.225     83303922 
  319300        546.5   0.48830193 -1.104357e-05    5188.6161    5492.6643     10681.28     83303922 
  319400          547    0.4915478 -2.200197e-06     5145.208    5529.1754    10674.383     83303922 
  319500        547.5   0.50347147 1.1266676e-05    5207.3328    5663.2988    10870.632     83303922 
  319600          548   0.50126714 -6.1983832e-06    5171.7686    5638.5034    10810.272     83303922 
  319700        548.5   0.50216828   1.2057e-05    5126.3614    5648.6399    10775.001     83303922 
  319800          549   0.50258155 -6.2695278e-06    5149.2368    5653.2886    10802.525     83303922 
  319900        549.5   0.49886235 8.9105109e-06    5109.2578    5611.4531    10720.711     83303922 
  320000          550   0.49825747 -1.1366048e-05    5143.8421    5604.6492    10748.491     83303922 
Loop time of 139.666 on 1 procs for 10000 steps with 7500 atoms

Performance: 30930.976 tau/day, 71.599 timesteps/s
99.8% CPU use with 1 MPI tasks x 1 OpenMP threads

MPI task timing breakdown:
Section |  min time  |  avg time  |  max time  |%varavg| %total
---------------------------------------------------------------
Pair    | 0.20348    | 0.20348    | 0.20348    |   0.0 |  0.15
Bond    | 3.7444     | 3.7444     | 3.7444     |   0.0 |  2.68
Neigh   | 128.46     | 128.46     | 128.46     |   0.0 | 91.97
Comm    | 2.7508     | 2.7508     | 2.7508     |   0.0 |  1.97
Output  | 0.35061    | 0.35061    | 0.35061    |   0.0 |  0.25
Modify  | 4.0136     | 4.0136     | 4.0136     |   0.0 |  2.87
Other   |            | 0.1477     |            |       |  0.11

Nlocal:    7500 ave 7500 max 7500 min
Histogram: 1 0 0 0 0 0 0 0 0 0
Nghost:    132 ave 132 max 132 min
Histogram: 1 0 0 0 0 0 0 0 0 0
Neighs:    0 ave 0 max 0 min
Histogram: 1 0 0 0 0 0 0 0 0 0

Total # of neighbors = 0
Ave neighs/atom = 0
Ave special neighs/atom = 5.2
Neighbor list builds = 846
Dangerous builds = 87
write_restart restart.time*

#This section  of codes allows looping over the list of T values
clear
OMP_NUM_THREADS environment is not set. Defaulting to 1 thread. (../comm.cpp:94)
  using 1 OpenMP thread(s) per MPI task
next mix_steps
jump in.run_loop loop  #jumps back to loop label

Total wall time: 0:28:15
