LAMMPS (3 Mar 2020)
OMP_NUM_THREADS environment is not set. Defaulting to 1 thread. (../comm.cpp:94)
  using 1 OpenMP thread(s) per MPI task
#run with lmp_serial -pk omp 8 -sf omp -in in.run_loop

#SETUP
# Runs on the first loop only
shell del *.dump     # delete all dump files before first run CAREFUL WITH THIS
shell del restart.time*     # delete all current restart files before first run
shell lmp_serial -in in.run_setup     # first run of file, generate first restart file

#VARIABLES
variable N         equal  500  #MUST BE SAME AS SETUP FILE FOR PHASEPLOT
variable len       equal  15
variable T         equal  0.5
variable t_step    equal  0.005 #originally 0.005
variable mix_steps index  20000 40000 40000 50000 50000 100000
variable mix_tau   equal  ${t_step}*${mix_steps}
variable mix_tau   equal  0.005*${mix_steps}
variable mix_tau   equal  0.005*20000
variable run_steps equal  300000 # steps to run simulation in order to reach steady state
variable run_tau   equal  ${t_step}*${run_steps} # this is the time in LJ units
variable run_tau   equal  0.005*${run_steps} 
variable run_tau   equal  0.005*300000 
#1000 particles averages 35,000 steps per minute

#LOOP START
label loop  #start loop from here
read_restart restart.time*
  restoring atom style molecular from restart
  orthogonal box = (-50.0486 -50.0486 -50.0486) to (50.0486 50.0486 50.0486)
  1 by 1 by 1 MPI processor grid
  restoring pair style lj/cut from restart
  restoring bond style harmonic from restart
  restoring angle style harmonic from restart
  7500 atoms
  7000 bonds
  6500 angles
  2 = max # of 1-2 neighbors
  2 = max # of 1-3 neighbors
  4 = max # of 1-4 neighbors
  6 = max # of special neighbors
  special bonds CPU = 0.0156221 secs
  read_restart CPU = 0.06249 secs
# this reads in latest restart file, * is wildcard for timestep


# THERMAL
timestep ${t_step}
timestep 0.005
thermo   100
thermo_style custom step time temp press pe ke etotal vol
thermo_modify norm no


# DUMP OUTPUT
dump  1  all custom 5000 output_T_${T}_time_*.dump id mol type x y z vx vy vz
dump  1  all custom 5000 output_T_0.5_time_*.dump id mol type x y z vx vy vz
# dumps all positions etc every N  steps
dump_modify 1 sort id

# FIX
fix 2 all nph iso 0.0000001 0.0000001 10   #reduced target pressure here
fix 3 all langevin ${T} ${T} 1 123456 #as above
fix 3 all langevin 0.5 ${T} 1 123456 
fix 3 all langevin 0.5 0.5 1 123456 
run ${mix_steps}
run 20000
Neighbor list info ...
  update every 1 steps, delay 10 steps, check yes
  max neighbors/atom: 2000, page size: 100000
  master list distance cutoff = 1.42
  ghost atom cutoff = 1.9
  binsize = 0.71, bins = 141 141 141
  1 neighbor lists, perpetual/occasional/extra = 1 0 0
  (1) pair lj/cut, perpetual
      attributes: half, newton on
      pair build: half/bin/newton
      stencil: half/bin/3d/newton
      bin: standard
Per MPI rank memory allocation (min/avg/max) = 21.59 | 21.59 | 21.59 Mbytes
Step Time Temp Press PotEng KinEng TotEng Volume 
       0            0   0.49105909 9.3062661e-05    5039.2264    5523.6782    10562.905      1002918 
     100          0.5    0.4896509 -0.00014514483    5117.6481    5507.8381    10625.486    1003572.1 
     200            1   0.48757982  0.001232814    5202.4944    5484.5416    10687.036      1003988 
     300          1.5    0.4908422 -0.0021016586    5230.4152    5521.2385    10751.654    1005659.1 
     400            2   0.49380916 0.0018630679    5221.6706    5554.6123    10776.283    1006326.4 
     500          2.5   0.50080241 -0.0017106036    5216.4063     5633.276    10849.682      1008155 
     600            3   0.50226124 0.0010407161     5137.374    5649.6855     10787.06    1008872.4 
     700          3.5   0.49319979 -0.00011667262    5133.2296    5547.7579    10680.988    1010134.5 
     800            4   0.49697082 -0.00063867188    5126.0215    5590.1763    10716.198    1011176.6 
     900          4.5   0.49762893 0.00093693891    5090.1044    5597.5791    10687.683    1012251.9 
    1000            5   0.48935575 -0.00079487235    5073.9803    5504.5182    10578.499    1013932.7 
    1100          5.5   0.49483021 0.00055177579    5113.5052    5566.0976    10679.603    1014735.2 
    1200            6   0.49993366 -8.6215863e-05    5083.8219    5623.5037    10707.326    1016041.3 
    1300          6.5   0.49431514 0.00068972093    5171.5908    5560.3038    10731.895    1017587.4 
    1400            7    0.4991132 -0.00073709983     5131.701    5614.2749    10745.976    1019536.1 
    1500          7.5   0.49486036 0.00073404013    5174.2538    5566.4367     10740.69    1021219.9 
    1600            8   0.49808092 -0.0016968888    5169.6767    5602.6632     10772.34    1023258.9 
    1700          8.5   0.50038751 0.0013790202    5162.7399    5628.6089    10791.349    1024099.7 
    1800            9   0.49710076 -0.00095411331    5239.6765     5591.638    10831.314    1026100.1 
    1900          9.5   0.49490909 4.3228072e-05    5202.7218     5566.985    10769.707    1027275.1 
    2000           10   0.49921274 0.00029241386    5161.1896    5615.3945    10776.584    1028391.8 
    2100         10.5   0.50293547 4.2634792e-05    5108.2233    5657.2696    10765.493    1029601.2 
    2200           11    0.5015926 0.00033311942    5229.4235    5642.1644    10871.588    1031009.5 
    2300         11.5   0.49886305 -0.00030417238    5224.4201     5611.461    10835.881    1032974.1 
    2400           12   0.50308137 -0.00017360088    5168.0653    5658.9108    10826.976    1034908.6 
    2500         12.5   0.49788679 -0.00029826762    5226.3029    5600.4796    10826.783      1036791 
    2600           13   0.49804159 0.00098763941    5208.6366    5602.2208    10810.857    1038297.5 
    2700         13.5   0.50356265 -0.00076122008    5144.9331    5664.3245    10809.258      1040358 
    2800           14   0.50109093 0.00076666125    5262.0997    5636.5213    10898.621    1041711.5 
    2900         14.5   0.50804711 -0.00015654843    5197.9277    5714.7679    10912.696    1043556.7 
    3000           15   0.50107094 0.00019599724    5185.1167    5636.2964    10821.413    1045250.6 
    3100         15.5    0.5022015 0.00065882188    5126.1629    5649.0136    10775.177    1046813.8 
    3200           16   0.49283773 -0.00015041926    5254.2115    5543.6852    10797.897    1048647.2 
    3300         16.5   0.50389755 -0.00053018062    5175.7902    5668.0916    10843.882    1050281.2 
    3400           17   0.50193335 0.0012823595    5222.5342    5645.9973    10868.531    1051767.9 
    3500         17.5   0.49964678 -0.00053350345    5172.3867    5620.2768    10792.664    1054421.5 
    3600           18   0.49486704 0.0010213307    5169.9921    5566.5119    10736.504    1056805.8 
    3700         18.5   0.49820319 -0.00032378387      5186.12    5604.0385    10790.159    1059746.2 
    3800           19   0.50733133 0.00093867506    5150.5237    5706.7165     10857.24    1062173.6 
    3900         19.5   0.50448464 -0.00025761128    5161.4126    5674.6955    10836.108      1065472 
    4000           20   0.50175726 8.8429106e-05    5175.0246    5644.0166    10819.041    1068610.3 
    4100         20.5    0.4993322 -6.3948416e-06    5211.9958    5616.7382    10828.734    1071479.7 
    4200           21   0.49870188 -0.00019356181    5178.4972    5609.6481    10788.145    1074210.4 
    4300         21.5   0.50369606 0.00038063864    5163.7116    5665.8251    10829.537      1076739 
    4400           22   0.50589714 -0.00072417942    5119.4834     5690.584    10810.067    1079384.4 
    4500         22.5   0.50082337 0.00048616577    5113.5838    5633.5117    10747.096    1081212.9 
    4600           23   0.50433728 -0.00050457452    5079.5212    5673.0379    10752.559    1083235.7 
    4700         23.5   0.50611219 0.0012086346    5122.2315     5693.003    10815.235    1084292.2 
    4800           24   0.49500541 -0.00089703994    5158.9769    5568.0684    10727.045    1086119.5 
    4900         24.5   0.49690218 0.00091343801    5195.4931    5589.4041    10784.897    1087466.2 
    5000           25   0.50342574 -0.00013919803    5163.1498    5662.7845    10825.934    1089827.8 
    5100         25.5   0.50747371 0.00014287017    5165.8171     5708.318    10874.135    1091836.1 
    5200           26   0.51176194 0.0006852127    5154.8329    5756.5541    10911.387    1094406.6 
    5300         26.5   0.51042686 -0.00067565198    5190.8132    5741.5365     10932.35    1097070.8 
    5400           27   0.49912783 0.00083281431    5217.1998    5614.4394    10831.639    1099419.2 
    5500         27.5   0.49979064 -0.00026798071    5126.5969     5621.895    10748.492    1102517.9 
    5600           28   0.49573862 -4.019762e-05    5113.9792    5576.3159    10690.295    1105603.4 
    5700         28.5   0.49769427 0.00049151533    5177.7182     5598.314    10776.032    1108234.8 
    5800           29   0.50722772 2.3934254e-05    5143.8732     5705.551    10849.424    1111064.8 
    5900         29.5     0.501043 0.00055152516    5133.5724    5635.9822    10769.555    1113613.6 
    6000           30   0.50012851 -4.2724399e-05    5125.0049    5625.6955      10750.7    1116577.9 
    6100         30.5   0.50781246 0.00053149852    5158.5646    5712.1285    10870.693    1119327.8 
    6200           31    0.5033896 7.6168197e-05    5166.8507    5662.3779    10829.229      1121806 
    6300         31.5   0.49756591 -9.7436384e-05    5077.6773    5596.8701    10674.547    1124278.4 
    6400           32   0.49648434 0.0002716069    5048.7238    5584.7041    10633.428    1126412.7 
    6500         32.5   0.50200514 -0.0005468318     5041.415    5646.8048     10688.22    1128618.6 
    6600           33    0.4969997 0.00084602216    5089.1887    5590.5011     10679.69    1130154.4 
    6700         33.5   0.50078208 -0.00035117473    5216.7262    5633.0472    10849.773    1132206.6 
    6800           34   0.50213972 5.0716196e-06    5141.1249    5648.3187    10789.444    1133716.9 
    6900         34.5    0.4879057 0.00058648056    5150.1022    5488.2072    10638.309    1134969.1 
    7000           35   0.49200562 -0.00049564988    5090.4214    5534.3252    10624.747    1136536.9 
    7100         35.5   0.49468174 0.0014545447    5141.4692    5564.4275    10705.897      1137950 
    7200           36   0.48718519 -0.0013324555    5122.7126    5480.1026    10602.815      1140881 
    7300         36.5   0.50066543 0.0014405038    5133.7044    5631.7351     10765.44    1142878.9 
    7400           37   0.50601363 -0.00096282203    5130.0555    5691.8943     10821.95    1145820.3 
    7500         37.5   0.49127157 0.0013083677    5206.2575    5526.0683    10732.326    1147615.3 
    7600           38   0.50191697 -0.0012886675    5047.1306    5645.8131    10692.944    1150263.2 
    7700         38.5    0.5047255 0.00078792531    5096.8091    5677.4048    10774.214    1151398.2 
    7800           39   0.50658088 -0.00042795227    5119.3798     5698.275    10817.655      1153486 
    7900         39.5   0.50633967 0.0002616325     5212.125    5695.5617    10907.687    1155174.3 
    8000           40   0.51185841 0.00025782994    5227.6174    5757.6393    10985.257    1156750.5 
    8100         40.5   0.50520094 -0.00014329579    5235.8664    5682.7528    10918.619    1158664.1 
    8200           41   0.50167504 0.00032935968    5189.6137    5643.0917    10832.705      1160665 
    8300         41.5   0.49949853 0.00048245806    5117.1662    5618.6093    10735.775    1162960.6 
    8400           42   0.50800828 -0.00020129425    5140.9592    5714.3311     10855.29    1165558.4 
    8500         42.5   0.50350801 -0.00011255522    5168.0228    5663.7098    10831.733    1168044.9 
    8600           43   0.49897692 0.00034623177    5153.5465    5612.7419    10766.288    1169624.6 
    8700         43.5   0.49588961 -0.00073566859     5178.255    5578.0143    10756.269    1171099.8 
    8800           44   0.50078699 0.0014475723    5114.8918    5633.1024    10747.994    1171719.7 
    8900         44.5   0.49983852 -0.00091046985     5157.388    5622.4336    10779.822    1173728.2 
    9000           45   0.50787487 0.00051321471      5138.53    5712.8305    10851.361    1174773.2 
    9100         45.5   0.50667071 0.00025386759     5072.343    5699.2855    10771.628    1175649.1 
    9200           46   0.49517178 -0.00024194912    5169.8811    5569.9398    10739.821    1177153.9 
    9300         46.5   0.50206732 0.00072265931    5151.1277    5647.5042    10798.632    1178584.4 
    9400           47   0.50080455 -0.00063550189    5188.3229       5633.3    10821.623      1181019 
    9500         47.5   0.49866478  0.001421768    5192.3196    5609.2308     10801.55    1182689.9 
    9600           48   0.50060138 -0.0012232428    5233.6461    5631.0146    10864.661    1185768.6 
    9700         48.5   0.49861699 0.0013826757    5246.9036    5608.6932    10855.597    1187795.4 
    9800           49   0.49546925 -0.0012696718    5264.9126    5573.2859    10838.198    1190918.4 
    9900         49.5   0.50012888 0.00092278434    5231.7316    5625.6998    10857.431    1192396.7 
   10000           50   0.49746366 -0.00066818003    5190.4742    5595.7199    10786.194    1195141.1 
   10100         50.5   0.50165848 0.00030843383    5217.7394    5642.9054    10860.645    1197247.2 
   10200           51   0.50351796 -0.00039335476    5194.8692    5663.8217    10858.691    1199450.3 
   10300         51.5   0.49897581 0.00076611942    5190.8879    5612.7294    10803.617    1201088.2 
   10400           52   0.50244789 -0.00061119164    5133.0958    5651.7851    10784.881    1203348.7 
   10500         52.5   0.50044723 0.00046945379    5081.6984    5629.2807    10710.979    1204633.4 
   10600           53   0.49773567 -0.00011490225     5160.321    5598.7797    10759.101    1206455.3 
   10700         53.5    0.5106374 1.2144596e-05    5138.2557    5743.9048     10882.16    1208601.3 
   10800           54   0.50290627 0.00063331825    5182.1285    5656.9411     10839.07    1211361.3 
   10900         54.5    0.4963897 -0.00016243477    5279.4044    5583.6396    10863.044    1214653.4 
   11000           55   0.49245547 0.00012650725    5290.7784    5539.3854    10830.164      1217567 
   11100         55.5   0.49291386 0.00015075518     5165.773    5544.5415    10710.315    1220290.8 
   11200           56   0.49634195 -4.4060436e-05    5082.6079    5583.1025     10665.71    1223036.5 
   11300         56.5   0.50052139 0.00039830764    5105.6893    5630.1149    10735.804    1225418.9 
   11400           57   0.50680728 0.00031984979    5121.3918    5700.8216    10822.213      1228209 
   11500         57.5   0.50498759 -9.7100821e-05    5142.5592     5680.353    10822.912    1230702.6 
   11600           58    0.5001909 -0.00013216249    5147.1002    5626.3973    10773.498    1232912.1 
   11700         58.5   0.49839318 0.00018630508    5141.5202    5606.1756    10747.696    1234871.6 
   11800           59   0.50419109 -0.00041875068     5133.804    5671.3935    10805.198    1237090.1 
   11900         59.5   0.50315211 0.00077305103     5166.761    5659.7065    10826.467    1239147.2 
   12000           60   0.50247223 -8.7064652e-05    5100.5525    5652.0589    10752.611    1242124.2 
   12100         60.5   0.49993224 1.5763239e-05    5071.1116    5623.4878    10694.599    1244807.2 
   12200           61   0.49485558 1.2659274e-05    5208.4246    5566.3829    10774.808    1247188.8 
   12300         61.5   0.50003199 6.5617695e-05     5118.875    5624.6099    10743.485    1249368.8 
   12400           62   0.50599584 0.00033695972    5163.1519    5691.6943    10854.846    1251833.9 
   12500         62.5   0.50057266 0.00016670549    5151.3535    5630.6915    10782.045    1254636.8 
   12600           63    0.4970764 -0.00010046488    5214.3976    5591.3639    10805.761    1257664.6 
   12700         63.5   0.50409896 -0.00021742393    5142.4746    5670.3572    10812.832    1260387.5 
   12800           64   0.49818482 0.00031918164    5102.3776    5603.8319    10706.209    1262914.8 
   12900         64.5   0.49928369 -0.0001943105    5160.5877    5616.1926     10776.78    1265663.8 
   13000           65   0.50105467 0.00026630482    5146.9569    5636.1135     10783.07      1268389 
   13100         65.5   0.49449737 6.1834202e-06    5221.5127    5562.3537    10783.866    1270914.6 
   13200           66   0.49556993 9.5190008e-05    5121.2399    5574.4184    10695.658    1273590.3 
   13300         66.5   0.49033115 3.5532402e-05    5127.6075    5515.4899    10643.097    1275745.9 
   13400           67   0.49509335 -6.3034971e-05    5128.9798    5569.0575    10698.037    1277820.5 
   13500         67.5   0.49593139 0.00068413496    5178.0337    5578.4843    10756.518    1280104.9 
   13600           68   0.50482042 -0.00024107454    5158.7447    5678.4725    10837.217    1283098.9 
   13700         68.5   0.48859724 0.00039719654    5201.5264     5495.986    10697.512    1285932.3 
   13800           69   0.49608087 -0.00028237157    5093.3639    5580.1657     10673.53    1288942.8 
   13900         69.5   0.50624385 0.00013740977     5096.321    5694.4839    10790.805    1291071.5 
   14000           70   0.50535012 3.4636552e-05    5153.9664    5684.4308    10838.397    1293077.5 
   14100         70.5   0.49779349 0.00025235183     5228.542    5599.4301    10827.972    1294906.3 
   14200           71    0.4892934 0.00023449493    5204.0304    5503.8168    10707.847    1297161.8 
   14300         71.5   0.49025229 -0.00027251514    5152.7135    5514.6029    10667.316    1299510.6 
   14400           72   0.49386725 -0.00020852801    5157.3757    5555.2658    10712.641    1301747.8 
   14500         72.5   0.49468168 0.00010556396    5211.5413    5564.4269    10775.968      1303858 
   14600           73    0.5023094 0.00010115156    5213.3125    5650.2273     10863.54    1306506.6 
   14700         73.5    0.5055256 0.00060782564    5170.6231    5686.4047    10857.028    1308703.5 
   14800           74   0.50066526 -0.00067758642    5184.6677    5631.7331    10816.401    1311141.4 
   14900         74.5    0.5035861 0.0010323641    5196.3415    5664.5883     10860.93    1312767.9 
   15000           75   0.50472078 -0.00061223875     5184.906    5677.3517    10862.258    1315293.4 
   15100         75.5   0.50411372 0.00030664819    5169.3457    5670.5232    10839.869    1317351.3 
   15200           76   0.50198522 0.00045961786    5113.3092    5646.5807     10759.89    1319560.9 
   15300         76.5   0.49745462 -0.00055316585    5139.8723    5595.6183    10735.491      1322103 
   15400           77   0.50345291 0.00073023007    5243.4542      5663.09    10906.544    1324032.1 
   15500         77.5   0.50411648 -0.00026888777    5230.6769    5670.5542    10901.231    1326861.5 
   15600           78   0.50512261 0.00052528135    5175.3228    5681.8717    10857.195    1330095.5 
   15700         78.5   0.50141524 4.4547559e-05      5272.95    5640.1693    10913.119    1333972.2 
   15800           79   0.50941965 -4.0943908e-05    5147.9745    5730.2069    10878.181    1337365.3 
   15900         79.5   0.50614108 6.1514877e-05    5100.2762     5693.328    10793.604    1340663.7 
   16000           80   0.49674287 4.274682e-05    5163.4764    5587.6122    10751.089    1343667.8 
   16100         80.5   0.49978748 0.00040890073    5076.2819    5621.8595    10698.141    1347241.9 
   16200           81   0.50005176 0.00024677266    5075.3588    5624.8322    10700.191    1350278.9 
   16300         81.5   0.49456259 -0.00021284824    5160.8694    5563.0873    10723.957      1353799 
   16400           82    0.4940575 0.00061049494    5145.2448    5557.4058    10702.651    1357707.9 
   16500         82.5   0.50093241 -0.00048399582    5017.7577    5634.7382    10652.496    1361528.8 
   16600           83   0.49082668 8.844935e-05    5134.8463    5521.0639     10655.91    1364684.1 
   16700         83.5   0.49738109 0.00032220433    5174.4624    5594.7912    10769.254    1367442.8 
   16800           84   0.49977596 -0.00015685098    5188.0155    5621.7299    10809.745    1370390.3 
   16900         84.5   0.49622923 0.00053976358    5121.2432    5581.8345    10703.078    1372886.8 
   17000           85   0.49711864 -0.00020028717    5133.2201    5591.8391    10725.059    1375424.4 
   17100         85.5   0.50056391 0.00052830924     5161.284    5630.5931    10791.877    1377796.6 
   17200           86   0.49885753 -0.00038242339    5248.6413    5611.3989     10860.04    1380295.2 
   17300         86.5   0.50023799 0.00032181445    5158.3463    5626.9271    10785.273    1382124.3 
   17400           87   0.49881062 -0.00019845518    5159.7426    5610.8713    10770.614    1384827.3 
   17500         87.5   0.50049832 0.00038283463    5200.9113    5629.8553    10830.767    1387096.8 
   17600           88   0.50347822 -6.9607132e-05     5205.085    5663.3747     10868.46    1390021.4 
   17700         88.5   0.50193953 -1.9191511e-05    5153.0574    5646.0668    10799.124    1393164.1 
   17800           89   0.50539814 0.00052775463    5146.5087     5684.971     10831.48    1396372.1 
   17900         89.5   0.49715077 1.8787398e-05     5156.958    5592.2005    10749.158      1399992 
   18000           90   0.49108186 0.00016860259    5138.3078    5523.9342    10662.242    1402811.2 
   18100         90.5   0.49960514 -0.00015648573    5085.0254    5619.8085    10704.834    1406033.4 
   18200           91   0.50687778 -0.00015420285    5068.2261    5701.6147    10769.841    1407986.9 
   18300         91.5   0.49916969 7.2838705e-05    5182.4616    5614.9103    10797.372    1409703.6 
   18400           92   0.50081563 -0.00015296715     5192.492    5633.4246    10825.917    1411251.8 
   18500         92.5   0.50250387 0.00011028921    5164.6013    5652.4148    10817.016    1413199.3 
   18600           93   0.49863044 0.00020784775     5262.115    5608.8445    10870.959    1415228.2 
   18700         93.5   0.51160638 -0.00029454841    5214.2782    5754.8043    10969.082    1417380.6 
   18800           94   0.50255968 0.00045047576    5193.1076    5653.0425     10846.15    1419264.8 
   18900         94.5   0.49798611 -0.0004695603     5217.811    5601.5967    10819.408    1421281.3 
   19000           95   0.49861128 0.00020407378    5162.6478     5608.629    10771.277    1423379.8 
   19100         95.5   0.50361934 0.00021388358    5199.3818    5664.9621    10864.344    1425525.7 
   19200           96   0.50500746 -5.0281537e-05    5259.5017    5680.5764    10940.078    1428098.8 
   19300         96.5   0.50291576 -7.3542985e-05     5197.971    5657.0479    10855.019    1430448.3 
   19400           97   0.49975012 0.00022319856    5250.8605    5621.4393      10872.3    1432554.7 
   19500         97.5   0.50452529 -0.00017432366    5187.9446    5675.1527    10863.097    1434382.3 
   19600           98   0.50480139 0.0001628903    5196.1707    5678.2584    10874.429      1436105 
   19700         98.5   0.51080025 -9.2348576e-05    5213.8586    5745.7366    10959.595    1437897.1 
   19800           99   0.50281935 0.00039085158    5177.6387    5655.9634    10833.602    1439961.9 
   19900         99.5   0.50203525 0.00020530323    5103.5288    5647.1435    10750.672    1442930.6 
   20000          100   0.50406954 0.00010549872    5103.8099    5670.0262    10773.836    1446115.5 
Loop time of 31.5831 on 1 procs for 20000 steps with 7500 atoms

Performance: 273563.819 tau/day, 633.250 timesteps/s
97.4% CPU use with 1 MPI tasks x 1 OpenMP threads

MPI task timing breakdown:
Section |  min time  |  avg time  |  max time  |%varavg| %total
---------------------------------------------------------------
Pair    | 0.98421    | 0.98421    | 0.98421    |   0.0 |  3.12
Bond    | 11.058     | 11.058     | 11.058     |   0.0 | 35.01
Neigh   | 8.6761     | 8.6761     | 8.6761     |   0.0 | 27.47
Comm    | 0.42151    | 0.42151    | 0.42151    |   0.0 |  1.33
Output  | 0.6402     | 0.6402     | 0.6402     |   0.0 |  2.03
Modify  | 9.4285     | 9.4285     | 9.4285     |   0.0 | 29.85
Other   |            | 0.3748     |            |       |  1.19

Nlocal:    7500 ave 7500 max 7500 min
Histogram: 1 0 0 0 0 0 0 0 0 0
Nghost:    275 ave 275 max 275 min
Histogram: 1 0 0 0 0 0 0 0 0 0
Neighs:    40 ave 40 max 40 min
Histogram: 1 0 0 0 0 0 0 0 0 0

Total # of neighbors = 40
Ave neighs/atom = 0.00533333
Ave special neighs/atom = 5.2
Neighbor list builds = 1774
Dangerous builds = 353

unfix 2
unfix 3
fix 4 all nve
fix 5 all langevin ${T} ${T} 1 123456
fix 5 all langevin 0.5 ${T} 1 123456
fix 5 all langevin 0.5 0.5 1 123456
fix recen1 all recenter INIT INIT INIT


# RUN
run ${run_steps}
run 300000
Per MPI rank memory allocation (min/avg/max) = 26.99 | 26.99 | 26.99 Mbytes
Step Time Temp Press PotEng KinEng TotEng Volume 
   20000          100   0.50406954 0.00010549872    5103.8099    5670.0262    10773.836    1446115.5 
   20100        100.5   0.50028753 0.00021287114    5070.2216    5627.4843    10697.706    1446115.5 
   20200          101   0.50227423 0.00052758946    5100.6223    5649.8317    10750.454    1446115.5 
   20300        101.5   0.50059636 7.5150153e-05    5177.0813    5630.9581    10808.039    1446115.5 
   20400          102   0.50630477 -0.00010983169    5190.2271    5695.1691    10885.396    1446115.5 
   20500        102.5   0.50479821 0.00017896627    5160.6197    5678.2226    10838.842    1446115.5 
   20600          103    0.4981257 0.00021365909    5150.3633    5603.1669     10753.53    1446115.5 
   20700        103.5   0.49824605 -0.00032987696    5190.8533    5604.5207    10795.374    1446115.5 
   20800          104     0.499708 0.00075181526    5144.2165    5620.9655    10765.182    1446115.5 
   20900        104.5   0.49918223 3.1751633e-05    5223.1094    5615.0513    10838.161    1446115.5 
   21000          105   0.50554986 0.00055818658    5212.7144    5686.6776    10899.392    1446115.5 
   21100        105.5   0.49993065 -0.00065743764    5228.9342    5623.4699    10852.404    1446115.5 
   21200          106   0.50299149 0.00055433115    5179.2705    5657.8998     10837.17    1446115.5 
   21300        106.5   0.50152794 -0.00022811699    5245.2451    5641.4371    10886.682    1446115.5 
   21400          107   0.49718223 0.00074312212    5185.5345    5592.5543    10778.089    1446115.5 
   21500        107.5   0.50002151 9.0316381e-06    5169.2174     5624.492    10793.709    1446115.5 
   21600          108   0.50110911 -6.5483351e-05    5124.6424    5636.7258    10761.368    1446115.5 
   21700        108.5   0.49837952 0.00043153025    5156.7867     5606.022    10762.809    1446115.5 
   21800          109   0.49741919 -0.00011676776    5225.4279    5595.2197    10820.648    1446115.5 
   21900        109.5   0.49737174  0.000725266    5133.2508     5594.686    10727.937    1446115.5 
   22000          110   0.49866426 -0.00047545399     5156.777    5609.2249    10766.002    1446115.5 
   22100        110.5   0.49904943 0.00047283839    5163.9672    5613.5575    10777.525    1446115.5 
   22200          111   0.50373852 -0.00028935803    5223.5277    5666.3027     10889.83    1446115.5 
   22300        111.5   0.49469677 0.00083739055    5217.7887    5564.5967    10782.385    1446115.5 
   22400          112   0.49868126 -0.00030486324    5250.7458    5609.4161    10860.162    1446115.5 
   22500        112.5   0.50413174 0.0003901422    5203.0927    5670.7258    10873.819    1446115.5 
   22600          113   0.50215303 0.00028365783    5117.1509    5648.4683    10765.619    1446115.5 
   22700        113.5   0.50144475 0.00011626981    5199.3041    5640.5013    10839.805    1446115.5 
   22800          114   0.50959013 0.00014483249    5146.6018    5732.1246    10878.726    1446115.5 
   22900        114.5   0.50556658 -0.00025804069       5219.3    5686.8656    10906.166    1446115.5 
   23000          115   0.49783759 0.00051604749    5257.0022    5599.9262    10856.928    1446115.5 
   23100        115.5   0.50266189 -0.00033168581    5080.1791    5654.1923    10734.371    1446115.5 
   23200          116   0.49594984 0.00029606484    5218.2267    5578.6917    10796.918    1446115.5 
   23300        116.5   0.50120854 -0.00038702023     5124.824    5637.8442    10762.668    1446115.5 
   23400          117   0.49150709 0.0007178348    5254.9146    5528.7175    10783.632    1446115.5 
   23500        117.5   0.49327853 -0.00047301223    5176.7519    5548.6436    10725.396    1446115.5 
   23600          118   0.49196442 0.00089349115    5101.6683    5533.8617     10635.53    1446115.5 
   23700        118.5   0.49152734 -0.00046075776    5146.1611    5528.9452    10675.106    1446115.5 
   23800          119   0.49225741 7.1488081e-05    5206.6259    5537.1575    10743.783    1446115.5 
   23900        119.5   0.49800408 0.00014889188    5187.5872    5601.7988    10789.386    1446115.5 
   24000          120   0.50242271 2.279087e-05    5139.0442    5651.5018    10790.546    1446115.5 
   24100        120.5   0.50599539 0.00022174903    5089.7946    5691.6892    10781.484    1446115.5 
   24200          121   0.49678852 5.3310487e-05    5256.4248    5588.1256     10844.55    1446115.5 
   24300        121.5   0.50772917 0.0004579253    5181.8804    5711.1916    10893.072    1446115.5 
   24400          122   0.48852367 -0.00042469348    5206.7037    5495.1585    10701.862    1446115.5 
   24500        122.5   0.50023542 0.00012349129    5173.9892    5626.8981    10800.887    1446115.5 
   24600          123   0.49930091 0.00056357764    5125.0706    5616.3863    10741.457    1446115.5 
   24700        123.5   0.49487916 -6.3758349e-05    5245.0531    5566.6482    10811.701    1446115.5 
   24800          124   0.50460059 8.863993e-05    5232.0987    5675.9997    10908.098    1446115.5 
   24900        124.5   0.50300132 0.00048977443    5247.9656    5658.0104    10905.976    1446115.5 
   25000          125   0.51151981 -0.00016080839     5163.343    5753.8305    10917.174    1446115.5 
   25100        125.5    0.5118092 -8.3347531e-05    5187.2075    5757.0857    10944.293    1446115.5 
   25200          126    0.5067633 0.00055910593    5325.6901     5700.327    11026.017    1446115.5 
   25300        126.5   0.50888329 1.5598264e-05    5186.9929    5724.1736    10911.167    1446115.5 
   25400          127   0.50119627 -2.2436949e-05     5223.075    5637.7063    10860.781    1446115.5 
   25500        127.5   0.50391005 0.00029808161    5131.2673    5668.2322    10799.499    1446115.5 
   25600          128   0.50219575 1.4651911e-06    5112.2764    5648.9489    10761.225    1446115.5 
   25700        128.5   0.49262884 8.0006005e-05    5220.2852    5541.3355    10761.621    1446115.5 
   25800          129   0.50230724 0.00024236635    5153.7685     5650.203    10803.971    1446115.5 
   25900        129.5    0.4959574 -0.00011409424    5164.9232    5578.7768      10743.7    1446115.5 
   26000          130   0.49352214 0.00039569635    5180.4666    5551.3838     10731.85    1446115.5 
   26100        130.5   0.49396108 -3.0170979e-05     5187.701    5556.3213    10744.022    1446115.5 
   26200          131    0.4897858 -0.00017681556    5224.3403    5509.3556    10733.696    1446115.5 
   26300        131.5   0.49992094 0.00043628667    5129.1234    5623.3606    10752.484    1446115.5 
   26400          132     0.498565 -5.5251233e-05    5199.1012    5608.1084     10807.21    1446115.5 
   26500        132.5    0.5023318 -0.00024398062    5134.1941    5650.4793    10784.673    1446115.5 
   26600          133    0.4998933 0.00054809891    5148.4146    5623.0498    10771.464    1446115.5 
   26700        133.5   0.50591684 -0.00051077557    5159.4363    5690.8055    10850.242    1446115.5 
   26800          134   0.50251698 0.00020742946    5214.1238    5652.5622    10866.686    1446115.5 
   26900        134.5   0.51085322 0.00014049324    5150.8118    5746.3325    10897.144    1446115.5 
   27000          135   0.49683945 0.00026732481    5223.2501    5588.6986    10811.949    1446115.5 
   27100        135.5   0.50086153 0.00051748531    5151.7555    5633.9409    10785.696    1446115.5 
   27200          136    0.5021853 -0.00064681894    5104.0021    5648.8314    10752.833    1446115.5 
   27300        136.5   0.49083747 0.00072787836    5223.1632    5521.1853    10744.348    1446115.5 
   27400          137   0.49774607 -0.00024835296     5151.624    5598.8967    10750.521    1446115.5 
   27500        137.5   0.49877058 0.00082204855    5126.0964    5610.4209    10736.517    1446115.5 
   27600          138    0.4911013 -0.00047095138    5119.0689    5524.1529    10643.222    1446115.5 
   27700        138.5   0.47893673 0.0002617995    5192.6923    5387.3198    10580.012    1446115.5 
   27800          139   0.49725785 9.7974985e-05    5179.5098    5593.4049    10772.915    1446115.5 
   27900        139.5   0.50324813 0.00011121295    5176.6877    5660.7866    10837.474    1446115.5 
   28000          140   0.50602128 -1.5095845e-07    5090.5632    5691.9804    10782.544    1446115.5 
   28100        140.5   0.49940904 0.00023458862    5153.8824    5617.6026    10771.485    1446115.5 
   28200          141   0.49289381 -0.00030778443      5146.28     5544.316    10690.596    1446115.5 
   28300        141.5   0.49462941 0.00035545382    5166.7886     5563.839    10730.628    1446115.5 
   28400          142   0.50259061 3.0921949e-06    5104.9828    5653.3904    10758.373    1446115.5 
   28500        142.5   0.49367868 -0.00010331049    5122.6324    5553.1446    10675.777    1446115.5 
   28600          143    0.5043977 0.00018953268     5073.496    5673.7175    10747.214    1446115.5 
   28700        143.5    0.5046707 0.00064460059    5081.9673    5676.7884    10758.756    1446115.5 
   28800          144   0.49748583 -0.00022037162     5196.499    5595.9693    10792.468    1446115.5 
   28900        144.5   0.49737935 0.00045671093     5192.602    5594.7716    10787.374    1446115.5 
   29000          145   0.49550829 -0.00050642948    5213.8512     5573.725    10787.576    1446115.5 
   29100        145.5   0.50131996 0.00033257944    5170.9878    5639.0976    10810.085    1446115.5 
   29200          146   0.50205404 -0.00012729121    5243.0927    5647.3549    10890.448    1446115.5 
   29300        146.5   0.49717561 0.0006354829     5191.126    5592.4799    10783.606    1446115.5 
   29400          147   0.49966897 -0.0007662253    5159.0545    5620.5264    10779.581    1446115.5 
   29500        147.5   0.49746974 0.00087530967    5160.8762    5595.7884    10756.665    1446115.5 
   29600          148    0.5067058 9.992108e-05    5064.5557    5699.6802    10764.236    1446115.5 
   29700        148.5   0.49622281 0.00021363306    5148.1184    5581.7622    10729.881    1446115.5 
   29800          149   0.49666195 -0.00021496094    5088.8167     5586.702    10675.519    1446115.5 
   29900        149.5   0.49510002 0.00033717763    5171.6771    5569.1326     10740.81    1446115.5 
   30000          150    0.4984062 0.00032022849    5145.6513    5606.3222    10751.973    1446115.5 
   30100        150.5   0.49581982 -0.00013843721     5143.724    5577.2293    10720.953    1446115.5 
   30200          151   0.49198912 0.00023131918    5185.7063    5534.1397    10719.846    1446115.5 
   30300        151.5   0.48962792 0.00045453791    5168.4455    5507.5797    10676.025    1446115.5 
   30400          152   0.49661537 -0.00030741147    5201.8029    5586.1779    10787.981    1446115.5 
   30500        152.5   0.50489872 0.00018247975    5105.0624    5679.3533    10784.416    1446115.5 
   30600          153   0.50269854 6.3042367e-05    5102.7437    5654.6046    10757.348    1446115.5 
   30700        153.5   0.49669102 0.00029967296    5187.0492     5587.029    10774.078    1446115.5 
   30800          154   0.50163685 -0.00023935615    5093.1229    5642.6621    10735.785    1446115.5 
   30900        154.5   0.49412556 0.0003161461    5140.4594    5558.1714    10698.631    1446115.5 
   31000          155   0.50566019 -9.7438688e-05    5085.9628    5687.9187    10773.881    1446115.5 
   31100        155.5   0.49411235 0.00024644898    5256.8887    5558.0227    10814.911    1446115.5 
   31200          156    0.5027777 3.9536739e-06    5177.5907     5655.495    10833.086    1446115.5 
   31300        156.5   0.50223397 -0.00013731819    5164.2147    5649.3788    10813.594    1446115.5 
   31400          157   0.50104917 0.00047723398    5255.7836    5636.0516    10891.835    1446115.5 
   31500        157.5   0.50142496 -0.00052090321    5241.6298    5640.2786    10881.908    1446115.5 
   31600          158   0.50161123 0.00056246625    5164.8476    5642.3739    10807.221    1446115.5 
   31700        158.5   0.50363251 -0.00017028024    5161.9281    5665.1103    10827.038    1446115.5 
   31800          159   0.50070807 1.4869556e-06    5125.2711    5632.2147    10757.486    1446115.5 
   31900        159.5   0.49401295 0.00038790673     5104.495    5556.9046      10661.4    1446115.5 
   32000          160    0.5026695 -0.00014983245     5096.135    5654.2778    10750.413    1446115.5 
   32100        160.5     0.506768 0.00045131397    5119.4415    5700.3799    10819.821    1446115.5 
   32200          161   0.50594663 0.00038944461    5116.6485    5691.1407    10807.789    1446115.5 
   32300        161.5   0.50635347 6.2717325e-06     5212.339     5695.717    10908.056    1446115.5 
   32400          162   0.50872404 0.00021984713    5120.3946    5722.3824    10842.777    1446115.5 
   32500        162.5   0.49776518 0.00020718877    5219.6998    5599.1117    10818.811    1446115.5 
   32600          163   0.50236773 -0.00032155083    5084.4481    5650.8834    10735.332    1446115.5 
   32700        163.5   0.49385347 0.00044188312     5180.723    5555.1108    10735.834    1446115.5 
   32800          164   0.49960376 -0.00034150257    5166.8054    5619.7929    10786.598    1446115.5 
   32900        164.5   0.50183412 0.00043861063    5239.5164    5644.8811    10884.397    1446115.5 
   33000          165   0.49760226 -0.00063751415    5221.9621    5597.2791    10819.241    1446115.5 
   33100        165.5    0.5063754 0.00069188951    5223.2385    5695.9637    10919.202    1446115.5 
   33200          166    0.5115662 -0.00037795732    5182.9096    5754.3524    10937.262    1446115.5 
   33300        166.5   0.51253041 0.00044069419    5222.5603    5765.1983    10987.759    1446115.5 
   33400          167   0.50918118 -0.00015493805    5202.3211    5727.5244    10929.846    1446115.5 
   33500        167.5   0.50615165 0.0003115819    5313.8579    5693.4469    11007.305    1446115.5 
   33600          168   0.50969119 -0.00065144648    5283.0656    5733.2614    11016.327    1446115.5 
   33700        168.5   0.50435611 0.00092065411    5171.1922    5673.2497    10844.442    1446115.5 
   33800          169   0.50083126 -0.00048789935    5228.3466    5633.6004    10861.947    1446115.5 
   33900        169.5   0.50836602 0.0010154561    5210.0526    5718.3552    10928.408    1446115.5 
   34000          170   0.50460509 -0.00066571204    5148.8834    5676.0503    10824.934    1446115.5 
   34100        170.5   0.50745473 0.00029894291    5167.3343    5708.1046    10875.439    1446115.5 
   34200          171   0.49991391 -0.0003203329     5187.776    5623.2816    10811.058    1446115.5 
   34300        171.5   0.50115129 0.00069321585    5198.2027    5637.2003    10835.403    1446115.5 
   34400          172   0.49892376 -0.00078262894    5183.0225     5612.144    10795.166    1446115.5 
   34500        172.5   0.50582682 0.00090478297    5183.3667    5689.7929     10873.16    1446115.5 
   34600          173   0.49571298 -0.00063154254    5262.6628    5576.0274     10838.69    1446115.5 
   34700        173.5   0.49490485 0.00065617911    5143.5499    5566.9372    10710.487    1446115.5 
   34800          174   0.49123125 -0.00043389284    5071.6498    5525.6147    10597.264    1446115.5 
   34900        174.5   0.48824777 0.00047954681    5146.3992     5492.055    10638.454    1446115.5 
   35000          175   0.49537648 -0.00043610113    5106.0435    5572.2423    10678.286    1446115.5 
   35100        175.5   0.49094327 0.00084018016    5152.7214    5522.3754    10675.097    1446115.5 
   35200          176   0.50355374 -0.00049183717    5164.8719    5664.2242    10829.096    1446115.5 
   35300        176.5   0.49968619 0.00022398962     5264.084    5620.7201    10884.804    1446115.5 
   35400          177   0.50157445 0.00077549251    5194.3074    5641.9601    10836.268    1446115.5 
   35500        177.5   0.50254154 0.00015391043    5109.9201    5652.8385    10762.759    1446115.5 
   35600          178   0.49833859 -2.8528245e-05      5200.05    5605.5617    10805.612    1446115.5 
   35700        178.5    0.4982351 -0.00025032432    5213.1894    5604.3975    10817.587    1446115.5 
   35800          179   0.49768287 6.4220051e-05    5181.5034    5598.1858    10779.689    1446115.5 
   35900        179.5   0.49420106 -4.3858365e-05    5178.1293    5559.0207     10737.15    1446115.5 
   36000          180   0.49986145 0.00020420007    5102.0827    5622.6915    10724.774    1446115.5 
   36100        180.5   0.50176417 -6.9368934e-05    5198.2727    5644.0943    10842.367    1446115.5 
   36200          181     0.498786 0.00037439023    5212.3677    5610.5943    10822.962    1446115.5 
   36300        181.5   0.50324865 -1.8681018e-05    5142.3091    5660.7924    10803.102    1446115.5 
   36400          182   0.50160781 0.00088538598    5179.9015    5642.3354    10822.237    1446115.5 
   36500        182.5   0.49817706 -0.00027542199    5127.5932    5603.7447    10731.338    1446115.5 
   36600          183   0.48951883 0.00013456521    5156.5866    5506.3525    10662.939    1446115.5 
   36700        183.5   0.49773193 7.5611946e-05    5116.4963    5598.7376    10715.234    1446115.5 
   36800          184   0.49904903 0.00020669939    5214.4741    5613.5531    10828.027    1446115.5 
   36900        184.5    0.5021022 -0.00037491227    5195.9865    5647.8967    10843.883    1446115.5 
   37000          185   0.49579016 0.00033611936    5234.3391    5576.8956    10811.235    1446115.5 
   37100        185.5   0.50362361 -0.00026372263    5273.2586    5665.0101    10938.269    1446115.5 
   37200          186   0.50096271 0.00018121084    5221.8236    5635.0791    10856.903    1446115.5 
   37300        186.5   0.50110291 7.7512841e-05    5162.8505    5636.6561    10799.507    1446115.5 
   37400          187   0.49600512 0.00066369377    5145.2101    5579.3136    10724.524    1446115.5 
   37500        187.5   0.50081337 -0.00039173079    5223.4321    5633.3992    10856.831    1446115.5 
   37600          188   0.49950316 0.00076412937    5199.7538    5618.6613    10818.415    1446115.5 
   37700        188.5   0.50012322 -0.00026256375    5180.8139     5625.636     10806.45    1446115.5 
   37800          189   0.49999475 9.6143646e-05    5251.4753    5624.1909    10875.666    1446115.5 
   37900        189.5    0.5055972 0.0001677856    5184.1653    5687.2101    10871.375    1446115.5 
   38000          190   0.49828029 0.00031698037    5215.0911    5604.9059    10819.997    1446115.5 
   38100        190.5   0.49998512 -0.00032962729    5196.0517    5624.0827    10820.134    1446115.5 
   38200          191   0.50877596 0.00086855083    5085.9998    5722.9663    10808.966    1446115.5 
   38300        191.5   0.50955057 0.00024871219    5085.9386    5731.6795    10817.618    1446115.5 
   38400          192   0.49468007 -2.2767914e-05     5157.113    5564.4087    10721.522    1446115.5 
   38500        192.5   0.49872941 0.00053993402    5138.9483    5609.9578    10748.906    1446115.5 
   38600          193   0.49724703 -0.00077098183    5103.8565    5593.2832     10697.14    1446115.5 
   38700        193.5   0.49963941 0.00073699653    5221.0209     5620.194    10841.215    1446115.5 
   38800          194   0.50238858 0.0001136694    5124.2556    5651.1179    10775.373    1446115.5 
   38900        194.5   0.50559023 0.00026143154    5163.3974    5687.1317    10850.529    1446115.5 
   39000          195   0.50224295 -0.00010862951    5130.3324    5649.4799    10779.812    1446115.5 
   39100        195.5   0.50589859 -3.2024229e-05    5112.9251    5690.6003    10803.525    1446115.5 
   39200          196   0.50477379 0.00019437431    5121.0878     5677.948    10799.036    1446115.5 
   39300        196.5   0.49662853 -0.00031736557     5134.081     5586.326    10720.407    1446115.5 
   39400          197   0.50679878 0.00059236305    5123.8509    5700.7261    10824.577    1446115.5 
   39500        197.5   0.49718715 -0.00039752396    5159.8547    5592.6097    10752.464    1446115.5 
   39600          198   0.50503216 -6.811959e-05    5258.1991    5680.8542    10939.053    1446115.5 
   39700        198.5   0.50297895 6.8003727e-05    5139.6624    5657.7587    10797.421    1446115.5 
   39800          199    0.4959842 0.00010122278    5119.0458    5579.0783    10698.124    1446115.5 
   39900        199.5   0.49674242 0.00035305414    5161.4169    5587.6071    10749.024    1446115.5 
   40000          200   0.49467803 0.00027172495    5109.8561    5564.3858    10674.242    1446115.5 
   40100        200.5   0.49448204 -0.00021549459    5153.8084    5562.1813     10715.99    1446115.5 
   40200          201   0.50359058 0.00031939845    5166.1092    5664.6386    10830.748    1446115.5 
   40300        201.5   0.51184776 0.00024939026     5181.516    5757.5196    10939.036    1446115.5 
   40400          202   0.50241753 9.778547e-05    5257.7911    5651.4436    10909.235    1446115.5 
   40500        202.5   0.50594147 0.00048040466     5194.307    5691.0826     10885.39    1446115.5 
   40600          203   0.49888467 0.00031708369      5214.74    5611.7042    10826.444    1446115.5 
   40700        203.5   0.49990711 0.00010260985     5175.641    5623.2052    10798.846    1446115.5 
   40800          204   0.49719762 -0.00013375963    5229.2879    5592.7274    10822.015    1446115.5 
   40900        204.5   0.50817545 0.00060070881    5084.5172    5716.2116    10800.729    1446115.5 
   41000          205   0.50623348 4.5168254e-05    5137.3622    5694.3673     10831.73    1446115.5 
   41100        205.5    0.4999132 0.00010137752    5184.3346    5623.2736    10807.608    1446115.5 
   41200          206   0.49587177 0.0003540485    5086.8452    5577.8136    10664.659    1446115.5 
   41300        206.5   0.50229492 0.00013501743    5159.7722    5650.0644    10809.837    1446115.5 
   41400          207   0.49651234 0.00063600695    5119.4788     5585.019    10704.498    1446115.5 
   41500        207.5   0.50639857 -0.00038630711    5166.2708    5696.2243    10862.495    1446115.5 
   41600          208   0.49952985 0.00055814407    5189.2525    5618.9615    10808.214    1446115.5 
   41700        208.5    0.4935567 -0.00029836543    5224.4906    5551.7726    10776.263    1446115.5 
   41800          209   0.49277895 0.00057218386    5174.7938    5543.0241    10717.818    1446115.5 
   41900        209.5   0.49557457 -0.00017624096    5065.8599    5574.4705     10640.33    1446115.5 
   42000          210    0.4906496 0.00075082606    5158.0724     5519.072    10677.144    1446115.5 
   42100        210.5   0.49418686 -0.00091423325    5195.2267    5558.8609    10754.088    1446115.5 
   42200          211   0.50036919 0.0011654162    5140.5875    5628.4029     10768.99    1446115.5 
   42300        211.5   0.50871469 -0.00050745611    5158.8187    5722.2772    10881.096    1446115.5 
   42400          212   0.49969493 0.00070531596    5180.3132    5620.8184    10801.132    1446115.5 
   42500        212.5   0.49891489 -0.00052172404    5045.9574    5612.0441    10658.002    1446115.5 
   42600          213   0.49146617 0.00069613106    5045.7427    5528.2573        10574    1446115.5 
   42700        213.5   0.48206221 -0.00059079438    5040.6059    5422.4767    10463.083    1446115.5 
   42800          214   0.49107838 0.00066527006    5091.0279    5523.8951    10614.923    1446115.5 
   42900        214.5   0.50043456 0.00015000857    5075.6286    5629.1381    10704.767    1446115.5 
   43000          215   0.49048693 4.6764297e-05     5091.666    5517.2423    10608.908    1446115.5 
   43100        215.5   0.49816223 -1.1790631e-05    5095.8698    5603.5779    10699.448    1446115.5 
   43200          216   0.49646802 -0.00013521347    5153.0839    5584.5205    10737.604    1446115.5 
   43300        216.5   0.49181261 0.00070484893    5139.8218    5532.1541    10671.976    1446115.5 
   43400          217   0.49388914 -0.00044507609    5153.0711     5555.512    10708.583    1446115.5 
   43500        217.5   0.49734295 0.00065672398    5168.4413    5594.3622    10762.804    1446115.5 
   43600          218   0.49596055 -0.0009408016    5257.9885    5578.8123    10836.801    1446115.5 
   43700        218.5   0.49876166 0.0005267546    5144.5246    5610.3205    10754.845    1446115.5 
   43800          219   0.50014025 -0.0003141561    5183.2115    5625.8276    10809.039    1446115.5 
   43900        219.5   0.50037665 0.00066686242    5226.3591    5628.4868    10854.846    1446115.5 
   44000          220   0.50153951 -0.0006426594    5165.6717    5641.5672    10807.239    1446115.5 
   44100        220.5   0.50162191 0.00055433099    5199.4625     5642.494    10841.956    1446115.5 
   44200          221    0.5004662 -9.4410734e-05    5004.7318     5629.494    10634.226    1446115.5 
   44300        221.5   0.49619418 0.00043824641    5114.6131    5581.4403    10696.053    1446115.5 
   44400          222   0.49435091 0.00043782591    5118.7539    5560.7062     10679.46    1446115.5 
   44500        222.5   0.50563619 -0.00026737343    5081.0944    5687.6486    10768.743    1446115.5 
   44600          223   0.50163092 0.00081361327    5192.8817    5642.5954    10835.477    1446115.5 
   44700        223.5   0.50667105 -0.00020464788    5225.1858    5699.2893    10924.475    1446115.5 
   44800          224    0.5035978 0.00044743738     5200.056    5664.7198    10864.776    1446115.5 
   44900        224.5    0.5015751 -0.00045758074    5178.2046    5641.9675    10820.172    1446115.5 
   45000          225   0.50220329 -0.00017439072    5149.7134    5649.0337    10798.747    1446115.5 
   45100        225.5   0.50147782 0.00062538417    5096.7289    5640.8733    10737.602    1446115.5 
   45200          226   0.49428321 -0.00012080248    5164.2804    5559.9447    10724.225    1446115.5 
   45300        226.5   0.50208533 0.00068255819    5140.6671    5647.7069    10788.374    1446115.5 
   45400          227   0.49101313 -0.00046918546     5275.464    5523.1612    10798.625    1446115.5 
   45500        227.5   0.50302442 0.00013515503     5151.235    5658.2702    10809.505    1446115.5 
   45600          228   0.50525827 0.00010342168    5116.1084    5683.3976    10799.506    1446115.5 
   45700        228.5    0.4997462 -1.1064339e-05    5138.0885    5621.3951    10759.484    1446115.5 
   45800          229   0.50310033 0.00089971834    5052.5503     5659.124    10711.674    1446115.5 
   45900        229.5    0.4936297 -0.00024942934    5216.0898    5552.5937    10768.683    1446115.5 
   46000          230   0.50601574 0.00021625186    5139.5569    5691.9181    10831.475    1446115.5 
   46100        230.5   0.49910369 0.00011402869    5154.8925    5614.1678     10769.06    1446115.5 
   46200          231   0.49687483 0.00016170772     5140.764    5589.0965    10729.861    1446115.5 
   46300        231.5   0.50136578 -0.00012203426      5145.52     5639.613    10785.133    1446115.5 
   46400          232   0.49865542  0.000408709    5163.2427    5609.1254    10772.368    1446115.5 
   46500        232.5   0.50574983 -0.00016657075    5152.2013    5688.9269    10841.128    1446115.5 
   46600          233   0.51268407 0.00081762064     5196.303    5766.9267     10963.23    1446115.5 
   46700        233.5   0.51181975 -0.00038263016    5178.2021    5757.2044    10935.407    1446115.5 
   46800          234   0.51217901 0.00043912038     5183.648    5761.2455    10944.894    1446115.5 
   46900        234.5   0.51289639 0.00017196386    5107.5099    5769.3151    10876.825    1446115.5 
   47000          235   0.50325015 5.6334772e-05    5160.1708    5660.8094     10820.98    1446115.5 
   47100        235.5   0.49843541 0.00035755797    5212.1483    5606.6508    10818.799    1446115.5 
   47200          236   0.50286706 -0.00041206883    5146.3409    5656.5001    10802.841    1446115.5 
   47300        236.5   0.49966254  0.001312966    5175.4974    5620.4541    10795.952    1446115.5 
   47400          237   0.49485373 -0.0011216671    5147.3683    5566.3622    10713.731    1446115.5 
   47500        237.5   0.50198769 0.0012832162    5058.3309    5646.6085    10704.939    1446115.5 
   47600          238   0.49752894 -0.00053721347    5148.2928    5596.4543    10744.747    1446115.5 
   47700        238.5   0.50242787 0.0010167057    5145.3595    5651.5598    10796.919    1446115.5 
   47800          239    0.5021438 -0.00054591114    5170.0185    5648.3645    10818.383    1446115.5 
   47900        239.5   0.50017587  0.001108695    5214.6765    5626.2282    10840.905    1446115.5 
   48000          240   0.50286065 -0.00099155672    5231.8284    5656.4281    10888.256    1446115.5 
   48100        240.5   0.49898077 0.0011100744    5203.4412    5612.7852    10816.226    1446115.5 
   48200          241     0.498358 -0.00075219333    5239.2848    5605.7799    10845.065    1446115.5 
   48300        241.5   0.50362202 0.0008549227    5146.6299    5664.9922    10811.622    1446115.5 
   48400          242   0.50073539 1.7010615e-05    5240.0384     5632.522     10872.56    1446115.5 
   48500        242.5   0.50543386 0.00011581387    5172.4725    5685.3728    10857.845    1446115.5 
   48600          243   0.50668434 0.00021392688    5130.1473    5699.4388    10829.586    1446115.5 
   48700        243.5   0.49803095 -5.6418359e-05    5188.7887    5602.1011     10790.89    1446115.5 
   48800          244   0.49137752 0.00011553036    5228.9585      5527.26    10756.218    1446115.5 
   48900        244.5   0.51088052 4.3495095e-05    5182.4094    5746.6396    10929.049    1446115.5 
   49000          245   0.51248726 -0.00024526242    5264.8853     5764.713    11029.598    1446115.5 
   49100        245.5   0.50886968 0.00087064975    5213.1075    5724.0206    10937.128    1446115.5 
   49200          246   0.51431512 -0.00042316968    5219.5279    5785.2736    11004.802    1446115.5 
   49300        246.5   0.50815196 0.00027864109     5266.596    5715.9473    10982.543    1446115.5 
   49400          247   0.50815014 0.00044200172    5222.6155    5715.9269    10938.542    1446115.5 
   49500        247.5   0.50485994 -0.00036888958    5179.3439     5678.917    10858.261    1446115.5 
   49600          248   0.50143644 0.00028152701    5207.9449    5640.4078    10848.353    1446115.5 
   49700        248.5   0.50114777 0.00027526889    5244.4544    5637.1607    10881.615    1446115.5 
   49800          249   0.50562626 0.00038774288    5255.9324     5687.537    10943.469    1446115.5 
   49900        249.5   0.50179442 -0.00038491378    5229.1953    5644.4346     10873.63    1446115.5 
   50000          250    0.4993341 0.00041837937      5150.33    5616.7596     10767.09    1446115.5 
   50100        250.5   0.50360496 -0.00023948648    5178.1051    5664.8004    10842.905    1446115.5 
   50200          251   0.49091726 0.00038532766    5242.8173    5522.0828      10764.9    1446115.5 
   50300        251.5   0.49774819 -0.0002535642    5166.5445    5598.9205    10765.465    1446115.5 
   50400          252   0.50600447 -9.2175286e-05    5134.2705    5691.7913    10826.062    1446115.5 
   50500        252.5   0.49881067 0.00047597785      5169.96    5610.8718    10780.832    1446115.5 
   50600          253   0.49833027 -3.7288067e-05    5182.0507    5605.4681    10787.519    1446115.5 
   50700        253.5   0.49811177 -3.3061606e-05    5230.2213    5603.0103    10833.232    1446115.5 
   50800          254   0.49850932 -0.00014587029    5217.6639    5607.4821    10825.146    1446115.5 
   50900        254.5   0.50639825 0.00036086116    5159.6574    5696.2208    10855.878    1446115.5 
   51000          255   0.49692626 -0.00052507613    5146.4634     5589.675    10736.138    1446115.5 
   51100        255.5   0.50767995 0.00048734456    5169.8372    5710.6379    10880.475    1446115.5 
   51200          256   0.49707034 -0.00035391822    5209.9901    5591.2957    10801.286    1446115.5 
   51300        256.5   0.49495241 0.00044346762    5190.2857    5567.4722    10757.758    1446115.5 
   51400          257   0.50198396 -0.00029291508    5068.1218    5646.5666    10714.688    1446115.5 
   51500        257.5   0.49986842 0.00087774925     5244.418    5622.7699    10867.188    1446115.5 
   51600          258   0.50205457 -0.00083890558    5116.4245    5647.3609    10763.785    1446115.5 
   51700        258.5   0.49421474 0.00058905244    5128.2554    5559.1745     10687.43    1446115.5 
   51800          259   0.49797382 -0.00015491913     5159.573    5601.4585    10761.032    1446115.5 
   51900        259.5   0.49583058 0.00048736624    5234.1593    5577.3503     10811.51    1446115.5 
   52000          260   0.50768346 0.00014282982    5095.0989    5710.6774    10805.776    1446115.5 
   52100        260.5   0.50409938 0.0001542336    5116.0317    5670.3619    10786.394    1446115.5 
   52200          261   0.49302519 -0.00053754964    5226.3097    5545.7939    10772.104    1446115.5 
   52300        261.5   0.49837081 0.00053976051    5179.1569     5605.924    10785.081    1446115.5 
   52400          262   0.50124545 -0.0008563182    5173.1658    5638.2595    10811.425    1446115.5 
   52500        262.5   0.49889879 0.00073430807    5141.5089    5611.8631    10753.372    1446115.5 
   52600          263   0.49654399 -0.00037703385    5183.9568    5585.3751    10769.332    1446115.5 
   52700        263.5   0.50495009 0.00031400644    5124.1361    5679.9311    10804.067    1446115.5 
   52800          264   0.49981359 0.00012760105     5223.523    5622.1531    10845.676    1446115.5 
   52900        264.5   0.50625104 -5.0243437e-05    5135.3973    5694.5649    10829.962    1446115.5 
   53000          265   0.50185679 0.00048208667    5173.4282    5645.1361    10818.564    1446115.5 
   53100        265.5   0.50465005 1.9889491e-05    5147.6361    5676.5561    10824.192    1446115.5 
   53200          266    0.4927236 -0.00021092049    5192.3576    5542.4014    10734.759    1446115.5 
   53300        266.5   0.49618921 -0.00017499433    5170.7434    5581.3843    10752.128    1446115.5 
   53400          267   0.48909815 -0.0004133135    5183.9548    5501.6205    10685.575    1446115.5 
   53500        267.5   0.49571902 0.00037399191    5154.4569    5576.0953    10730.552    1446115.5 
   53600          268   0.50109778 -0.00061854322    5162.4895    5636.5984    10799.088    1446115.5 
   53700        268.5   0.49937196 0.00050895909    5218.3129    5617.1855    10835.498    1446115.5 
   53800          269   0.50879273 -0.0004772657     5210.593     5723.155    10933.748    1446115.5 
   53900        269.5   0.50676288 0.00025470015    5167.7297    5700.3222    10868.052    1446115.5 
   54000          270   0.50020987 -0.00025195351    5153.7483    5626.6107    10780.359    1446115.5 
   54100        270.5   0.50590847 0.00060044221    5205.9791    5690.7115    10896.691    1446115.5 
   54200          271   0.50558373 -0.00016756015    5129.8988    5687.0585    10816.957    1446115.5 
   54300        271.5   0.50103002 0.00013837663      5185.26    5635.8362    10821.096    1446115.5 
   54400          272    0.5010818 0.00070021315    5233.3959    5636.4186    10869.815    1446115.5 
   54500        272.5   0.50067276 -0.00034583705    5184.4018    5631.8175    10816.219    1446115.5 
   54600          273   0.50324754 0.00034753352    5092.7401      5660.78     10753.52    1446115.5 
   54700        273.5   0.50016485 -0.00021132728    5067.0288    5626.1043    10693.133    1446115.5 
   54800          274   0.49920606 0.00096567653    5174.8782    5615.3193    10790.198    1446115.5 
   54900        274.5   0.49387633 -0.00055809116     5264.558    5555.3679    10819.926    1446115.5 
   55000          275   0.49838377 0.00012272881    5122.1696    5606.0698    10728.239    1446115.5 
   55100        275.5   0.49953501 0.00015417265    5178.5695    5619.0196    10797.589    1446115.5 
   55200          276    0.4957401 -0.00015118438    5174.5293    5576.3325    10750.862    1446115.5 
   55300        276.5   0.49830019 0.00038285202    5203.5578    5605.1297    10808.688    1446115.5 
   55400          277   0.49959298 -0.00025243627    5192.7664    5619.6716    10812.438    1446115.5 
   55500        277.5   0.49867273 -9.971993e-05    5165.1422    5609.3202    10774.462    1446115.5 
   55600          278   0.49974831 -1.3928558e-06    5132.7552    5621.4189    10754.174    1446115.5 
   55700        278.5   0.49937321 0.00035350336    5101.4221    5617.1996    10718.622    1446115.5 
   55800          279   0.50113172 4.1720486e-06    5151.7243    5636.9802    10788.704    1446115.5 
   55900        279.5   0.49578292 -0.0004455279    5171.0652    5576.8142    10747.879    1446115.5 
   56000          280   0.49905169 0.00063577088    5108.5626    5613.5829    10722.146    1446115.5 
   56100        280.5   0.49445235 -0.00042443878    5117.6061    5561.8473    10679.453    1446115.5 
   56200          281   0.50079084 0.00082366825    5126.6399    5633.1458    10759.786    1446115.5 
   56300        281.5   0.49855851 -0.00024006457    5120.3261    5608.0354    10728.362    1446115.5 
   56400          282   0.49013459 0.00060707797    5169.0567    5513.2789    10682.336    1446115.5 
   56500        282.5   0.48646501 -0.0002998955    5134.5367    5472.0016    10606.538    1446115.5 
   56600          283   0.50126595 0.00058617947    5154.5953      5638.49    10793.085    1446115.5 
   56700        283.5   0.49558308 -0.00035782331    5230.0986    5574.5662    10804.665    1446115.5 
   56800          284   0.49959863 0.00016943453    5183.6004    5619.7352    10803.336    1446115.5 
   56900        284.5   0.49978257 0.00015862743    5206.9362    5621.8042     10828.74    1446115.5 
   57000          285   0.49845624 -2.3352808e-06     5186.335    5606.8851     10793.22    1446115.5 
   57100        285.5   0.49688128 -0.00024370305    5149.3765    5589.1691    10738.546    1446115.5 
   57200          286   0.50373185 0.00038540999    5156.4877    5666.2277    10822.715    1446115.5 
   57300        286.5   0.50115938 -0.00043985786    5223.2697    5637.2913    10860.561    1446115.5 
   57400          287   0.50434332 0.00060067274    5200.2757    5673.1058    10873.382    1446115.5 
   57500        287.5   0.49362114 -0.00078887529    5214.1178    5552.4974    10766.615    1446115.5 
   57600          288   0.49215375 0.00087529123    5149.2495    5535.9915    10685.241    1446115.5 
   57700        288.5   0.49866572 -0.00031181133    5117.0042    5609.2414    10726.246    1446115.5 
   57800          289   0.50562758 0.00032968982    5113.5001    5687.5518    10801.052    1446115.5 
   57900        289.5    0.4955293 -0.00029032057    5177.4611    5573.9613    10751.422    1446115.5 
   58000          290   0.50436971 0.00030555982    5189.0789    5673.4027    10862.482    1446115.5 
   58100        290.5    0.4922964 -0.00026266515    5153.3594    5537.5961    10690.955    1446115.5 
   58200          291   0.49384543 0.00013620635    5100.5849    5555.0203    10655.605    1446115.5 
   58300        291.5   0.50484889 -0.00010542557    5118.8694    5678.7927    10797.662    1446115.5 
   58400          292   0.49349716 -0.00020312999     5239.248    5551.1028    10790.351    1446115.5 
   58500        292.5    0.4940065 0.00043083247    5246.8407    5556.8321    10803.673    1446115.5 
   58600          293   0.50261087 4.1288762e-05    5104.2529    5653.6184    10757.871    1446115.5 
   58700        293.5   0.50207936 -0.00012254512     5184.697    5647.6397    10832.337    1446115.5 
   58800          294   0.50342407 -7.8685995e-05    5175.7694    5662.7657    10838.535    1446115.5 
   58900        294.5   0.49419812 -0.00030030382    5140.5312    5558.9876    10699.519    1446115.5 
   59000          295    0.4914847 8.4796722e-05    5148.1879    5528.4656    10676.654    1446115.5 
   59100        295.5   0.49818121 -0.00023464794    5127.4444    5603.7913    10731.236    1446115.5 
   59200          296    0.5057304 0.00044359615    5145.9752    5688.7084    10834.684    1446115.5 
   59300        296.5    0.4987169 0.00013785342     5156.773    5609.8171     10766.59    1446115.5 
   59400          297    0.5095032 -0.00079375889    5144.2865    5731.1468    10875.433    1446115.5 
   59500        297.5   0.50426521 0.00086321659    5108.7403    5672.2272    10780.968    1446115.5 
   59600          298    0.5003258 -0.00075913241    5165.7195    5627.9148    10793.634    1446115.5 
   59700        298.5   0.50229953 0.00092530842    5210.1432    5650.1162    10860.259    1446115.5 
   59800          299   0.50745197 -0.00062809656    5131.8724    5708.0734    10839.946    1446115.5 
   59900        299.5   0.50137864 0.00075433541    5147.3575    5639.7577    10787.115    1446115.5 
   60000          300    0.4967369 -9.6507371e-05    5222.3141    5587.5451    10809.859    1446115.5 
   60100        300.5   0.50034103 0.00039023027    5177.9238     5628.086     10806.01    1446115.5 
   60200          301   0.50248092 -9.6936239e-05    5194.1865    5652.1567    10846.343    1446115.5 
   60300        301.5   0.50608804 0.00023598964    5131.6594    5692.7313    10824.391    1446115.5 
   60400          302   0.49721603 -7.2885807e-05    5206.1587    5592.9345    10799.093    1446115.5 
   60500        302.5   0.49895221 0.00023456623    5193.9368     5612.464    10806.401    1446115.5 
   60600          303   0.50015352 0.00038049347    5191.9127    5625.9768     10817.89    1446115.5 
   60700        303.5    0.5011844 -1.5627276e-05     5130.593    5637.5728    10768.166    1446115.5 
   60800          304   0.49723626 0.00055762597    5192.9674    5593.1621    10786.129    1446115.5 
   60900        304.5   0.49011506 0.00026475653    5123.7579    5513.0593    10636.817    1446115.5 
   61000          305   0.49981805 -0.00051149823     5085.886    5622.2033    10708.089    1446115.5 
   61100        305.5   0.50204433 0.00080780423    5155.7426    5647.2457    10802.988    1446115.5 
   61200          306   0.50716517 -0.00091042167    5170.4295    5704.8474    10875.277    1446115.5 
   61300        306.5   0.50108952 0.0012914742    5126.9267    5636.5055    10763.432    1446115.5 
   61400          307    0.5005819 -0.000844206    5193.7635    5630.7955    10824.559    1446115.5 
   61500        307.5   0.49579494 0.0012149914    5214.8937    5576.9494    10791.843    1446115.5 
   61600          308   0.49747949 -0.00028416887    5079.7716     5595.898     10675.67    1446115.5 
   61700        308.5   0.49780708 0.00019653102    5123.4625    5599.5829    10723.045    1446115.5 
   61800          309   0.49756468 0.00037029568    5137.1982    5596.8563    10734.055    1446115.5 
   61900        309.5   0.49958596 2.6103127e-05     5233.451    5619.5927    10853.044    1446115.5 
   62000          310   0.50577311 0.00051388079    5178.9744    5689.1888    10868.163    1446115.5 
   62100        310.5   0.50367575 -0.00047610025    5181.9354    5665.5967    10847.532    1446115.5 
   62200          311    0.4993375 0.00069268174    5176.5165    5616.7979    10793.314    1446115.5 
   62300        311.5   0.49363611 -0.00078757951    5249.5241    5552.6658     10802.19    1446115.5 
   62400          312   0.50305389 0.00066971158    5139.7784    5658.6017     10798.38    1446115.5 
   62500        312.5   0.49820558 -0.00033718058    5139.1206    5604.0655    10743.186    1446115.5 
   62600          313   0.50470637 0.00034579109    5176.5706    5677.1896     10853.76    1446115.5 
   62700        313.5   0.49825323 -0.00017489524    5185.6122    5604.6014    10790.214    1446115.5 
   62800          314   0.50875296 0.00013304983    5125.7998    5722.7076    10848.507    1446115.5 
   62900        314.5   0.50084008 0.00051052078    5106.4942    5633.6997    10740.194    1446115.5 
   63000          315    0.4963588 -0.00037833775    5160.4426    5583.2919    10743.734    1446115.5 
   63100        315.5   0.49728712 0.00082842568    5119.6955    5593.7342     10713.43    1446115.5 
   63200          316   0.50144639 -5.1266613e-05    5153.2634    5640.5197    10793.783    1446115.5 
   63300        316.5   0.49500319 -0.0002124837    5210.0249    5568.0433    10778.068    1446115.5 
   63400          317   0.49240255 -8.1505463e-05    5189.2865    5538.7901    10728.077    1446115.5 
   63500        317.5   0.50092444 0.00035757271    5133.4325    5634.6485    10768.081    1446115.5 
   63600          318   0.49883827 0.00023779491    5201.1709    5611.1823    10812.353    1446115.5 
   63700        318.5   0.49526544 0.00044288383    5352.2842    5570.9933    10923.277    1446115.5 
   63800          319   0.50733403 -6.4618877e-05    5224.6075    5706.7468    10931.354    1446115.5 
   63900        319.5   0.50367247 -0.00025915318    5211.0772    5665.5598    10876.637    1446115.5 
   64000          320   0.50273239 0.00028877796    5187.6471    5654.9853    10842.632    1446115.5 
   64100        320.5    0.5020232 0.00038723629    5197.2354    5647.0079    10844.243    1446115.5 
   64200          321   0.50785741 0.00053512723    5195.9797    5712.6341    10908.614    1446115.5 
   64300        321.5   0.49776965 -0.00047357742    5101.0817    5599.1619    10700.244    1446115.5 
   64400          322   0.49840677 0.00057140387    5079.1455    5606.3285    10685.474    1446115.5 
   64500        322.5   0.50153575 9.6520424e-05    5174.4571    5641.5249    10815.982    1446115.5 
   64600          323   0.49961796 -0.00027644437    5288.6973    5619.9526     10908.65    1446115.5 
   64700        323.5   0.50305773 0.0001449235    5254.3143    5658.6449    10912.959    1446115.5 
   64800          324   0.49908521 0.00042728802    5252.5462    5613.9599    10866.506    1446115.5 
   64900        324.5   0.50568503 1.6187393e-05    5240.5956    5688.1981    10928.794    1446115.5 
   65000          325   0.49739665 -8.9833309e-07    5171.4801    5594.9662    10766.446    1446115.5 
   65100        325.5    0.5088616 0.00033006233    5174.8717    5723.9298    10898.802    1446115.5 
   65200          326   0.50184904 0.00038830288    5175.9057    5645.0489    10820.955    1446115.5 
   65300        326.5   0.49772532 -0.00047910942    5222.6052    5598.6633    10821.268    1446115.5 
   65400          327    0.4996546 0.0011885969    5166.0154    5620.3648     10786.38    1446115.5 
   65500        327.5   0.49499118 -0.00049681223    5119.8582    5567.9083    10687.767    1446115.5 
   65600          328   0.50367823 0.00056467276    5159.3634    5665.6245    10824.988    1446115.5 
   65700        328.5   0.50335014 -0.00013046806    5149.4506    5661.9341    10811.385    1446115.5 
   65800          329    0.4991429 0.00057891761    5152.6068    5614.6089    10767.216    1446115.5 
   65900        329.5   0.49564873 -6.7991868e-05    5143.8988    5575.3048    10719.204    1446115.5 
   66000          330    0.4948965 0.00012433111    5221.3745    5566.8433    10788.218    1446115.5 
   66100        330.5    0.4935777 0.00063498074    5162.9211    5552.0088     10714.93    1446115.5 
   66200          331   0.49642191 -0.00026832868    5113.6478    5584.0019     10697.65    1446115.5 
   66300        331.5   0.49638167 0.00054236304    5141.6724    5583.5492    10725.222    1446115.5 
   66400          332   0.49276456 0.00052240016     5106.583    5542.8622    10649.445    1446115.5 
   66500        332.5   0.50022527 -0.00069053232    5153.6665    5626.7839     10780.45    1446115.5 
   66600          333   0.50193065 0.00093177651    5116.7278    5645.9669    10762.695    1446115.5 
   66700        333.5   0.50029987 -0.00092807507    5185.6109    5627.6231    10813.234    1446115.5 
   66800          334   0.50337708  0.001393644    5154.5501     5662.237    10816.787    1446115.5 
   66900        334.5   0.50463066 -0.00072704894    5099.9696     5676.338    10776.308    1446115.5 
   67000          335   0.50408454 0.00063051159    5181.1845    5670.1949    10851.379    1446115.5 
   67100        335.5   0.50474093 -0.00047926437    5178.5336    5677.5784    10856.112    1446115.5 
   67200          336   0.50307007 0.00051560144    5116.7605    5658.7836    10775.544    1446115.5 
   67300        336.5   0.49931791 -4.5283979e-05    5123.2928    5616.5775     10739.87    1446115.5 
   67400          337   0.49888203 0.00010589251    5136.8195    5611.6746    10748.494    1446115.5 
   67500        337.5   0.49892993 0.00015505423    5098.7754    5612.2133    10710.989    1446115.5 
   67600          338   0.49829781 0.00034126446    5036.6318    5605.1029    10641.735    1446115.5 
   67700        338.5   0.49786602 0.0001764942     5120.851    5600.2459    10721.097    1446115.5 
   67800          339    0.4940752 -0.00025566014    5206.2997    5557.6049    10763.905    1446115.5 
   67900        339.5   0.49686596 0.00057511651    5152.9483    5588.9968    10741.945    1446115.5 
   68000          340    0.4952877 -0.00011149923    5212.2652    5571.2436    10783.509    1446115.5 
   68100        340.5   0.49463136 0.00023094909    5205.6978    5563.8608    10769.559    1446115.5 
   68200          341   0.49638632 -0.00065813884    5249.3987    5583.6015        10833    1446115.5 
   68300        341.5   0.49766015 0.00074978486    5131.2419    5597.9302    10729.172    1446115.5 
   68400          342   0.49443769 -0.00053254921    5148.8604    5561.6824    10710.543    1446115.5 
   68500        342.5   0.49422778 0.00082828208    5079.5676    5559.3212    10638.889    1446115.5 
   68600          343   0.50598386 -0.00038377228    5166.8488    5691.5595    10858.408    1446115.5 
   68700        343.5   0.50216391 0.00076504511    5209.6482    5648.5907    10858.239    1446115.5 
   68800          344   0.49976129 -0.00060253728    5232.7279    5621.5649    10854.293    1446115.5 
   68900        344.5   0.49683224 0.00045835422    5244.4225    5588.6175     10833.04    1446115.5 
   69000          345   0.50062048 -0.00045295267    5124.8805    5631.2295     10756.11    1446115.5 
   69100        345.5   0.49980471 0.00065910719    5212.3671    5622.0533     10834.42    1446115.5 
   69200          346   0.50038123 -0.00044817031    5281.5533    5628.5383    10910.092    1446115.5 
   69300        346.5   0.51014589 0.00035968947    5115.1924     5738.376    10853.568    1446115.5 
   69400          347   0.50468031 -1.2522859e-06    5156.9485    5676.8964    10833.845    1446115.5 
   69500        347.5   0.50095355 0.00046830432    5199.4603     5634.976    10834.436    1446115.5 
   69600          348   0.50676555 -0.00020168814    5220.2775    5700.3523     10920.63    1446115.5 
   69700        348.5   0.49851797 0.00040415236    5237.1475    5607.5794    10844.727    1446115.5 
   69800          349    0.4979904 -0.00036055214    5158.2235    5601.6451    10759.869    1446115.5 
   69900        349.5   0.50373731 0.00028284044    5170.9462    5666.2892    10837.235    1446115.5 
   70000          350   0.50802375 0.00024436536    5157.0662    5714.5052    10871.571    1446115.5 
   70100        350.5   0.50004604 0.00014090342    5128.4171    5624.7679    10753.185    1446115.5 
   70200          351    0.4917786 -0.0003416885    5230.3864    5531.7716    10762.158    1446115.5 
   70300        351.5   0.49914131 0.00069691784     5280.329    5614.5911     10894.92    1446115.5 
   70400          352   0.50125355 -0.00033354833    5207.6865    5638.3505    10846.037    1446115.5 
   70500        352.5   0.50176492 0.00044054864    5227.1252    5644.1027    10871.228    1446115.5 
   70600          353   0.50816537 7.262142e-06    5166.2711    5716.0982    10882.369    1446115.5 
   70700        353.5    0.5031484 -4.5409138e-05    5162.8624    5659.6648    10822.527    1446115.5 
   70800          354   0.50318581 0.00068303188    5130.3871    5660.0856    10790.473    1446115.5 
   70900        354.5   0.50271501 -0.00049816988    5172.8313    5654.7898    10827.621    1446115.5 
   71000          355   0.50004014 4.395537e-05    5198.0954    5624.7015    10822.797    1446115.5 
   71100        355.5   0.49441901 -0.00027294507    5269.4753    5561.4722    10830.947    1446115.5 
   71200          356   0.49767833 0.00039081367    5157.8695    5598.1346    10756.004    1446115.5 
   71300        356.5   0.49818941 -0.00012608053    5179.6637    5603.8835    10783.547    1446115.5 
   71400          357   0.49989983 0.00057023272    5080.7278    5623.1233    10703.851    1446115.5 
   71500        357.5   0.49745113 -0.00012759006    5068.5194    5595.5791    10664.098    1446115.5 
   71600          358   0.50169424 0.00036629007    5125.6331    5643.3077    10768.941    1446115.5 
   71700        358.5   0.50015637 4.8132676e-05    5171.4528    5626.0089    10797.462    1446115.5 
   71800          359   0.50320658 -3.1966396e-05    5140.3643    5660.3192    10800.684    1446115.5 
   71900        359.5   0.50014557 0.00062199107      5076.86    5625.8874    10702.747    1446115.5 
   72000          360   0.50016279 -0.00028388592    5123.7868    5626.0812    10749.868    1446115.5 
   72100        360.5   0.50240292 0.00053321514    5135.3682    5651.2792    10786.647    1446115.5 
   72200          361   0.49801571 -0.000231117    5120.7406    5601.9297     10722.67    1446115.5 
   72300        361.5   0.49747711 9.8079578e-05    5143.5284    5595.8713      10739.4    1446115.5 
   72400          362   0.49290458 0.00036971902    5069.5939    5544.4371    10614.031    1446115.5 
   72500        362.5   0.49368375 9.899784e-05    5029.4303    5553.2017    10582.632    1446115.5 
   72600          363   0.48942674 0.00018872117    5171.5104    5505.3167    10676.827    1446115.5 
   72700        363.5   0.49399837 4.4466291e-05    5149.9331    5556.7406    10706.674    1446115.5 
   72800          364   0.49871384 8.0028422e-06    5101.1626    5609.7827    10710.945    1446115.5 
   72900        364.5   0.49112307 0.00068874755     5089.626    5524.3979    10614.024    1446115.5 
   73000          365   0.49705436 -0.00072594693    5102.2523    5591.1159    10693.368    1446115.5 
   73100        365.5   0.49379005 0.0010163775    5172.1329    5554.3973     10726.53    1446115.5 
   73200          366   0.49982459 -0.00088974808    5195.5835    5622.2769     10817.86    1446115.5 
   73300        366.5   0.50156247 0.00052682854    5157.2779    5641.8254    10799.103    1446115.5 
   73400          367   0.49928181 0.00028040922    5159.6881    5616.1715     10775.86    1446115.5 
   73500        367.5   0.49990886 -0.00033619248    5168.7768    5623.2248    10792.002    1446115.5 
   73600          368   0.49657321 0.0004364619    5159.4222    5585.7037    10745.126    1446115.5 
[...]
 2082100       1910.5   0.50126793 -1.8039371e-06    5106.1842    5638.5124    10744.697 1.6054716e+08 
 2082200         1911   0.49774353 2.8096462e-06     5251.183    5598.8681    10850.051 1.6054716e+08 
 2082300       1911.5   0.50054573 2.2400702e-06    5181.5659    5630.3887    10811.955 1.6054716e+08 
 2082400         1912   0.50474284 -3.0202684e-06     5209.654    5677.5998    10887.254 1.6054716e+08 
 2082500       1912.5    0.5084371 1.1692575e-06    5150.5275    5719.1547    10869.682 1.6054716e+08 
 2082600         1913   0.49604006 -1.1613113e-06    5197.3619    5579.7066    10777.068 1.6054716e+08 
 2082700       1913.5   0.50553829 2.6794137e-06    5174.3133    5686.5475    10860.861 1.6054716e+08 
 2082800         1914   0.49770668 -5.8787889e-06    5157.7602    5598.4535    10756.214 1.6054716e+08 
 2082900       1914.5   0.49974427  4.75005e-06    5200.6546    5621.3734    10822.028 1.6054716e+08 
 2083000         1915   0.50131514 -7.2725092e-07    5088.7536    5639.0433    10727.797 1.6054716e+08 
 2083100       1915.5   0.49615981 3.0567661e-06    5202.6707    5581.0536    10783.724 1.6054716e+08 
 2083200         1916   0.50625441 -4.351708e-06    5167.0942    5694.6028    10861.697 1.6054716e+08 
 2083300       1916.5   0.49917044 6.1466206e-06    5222.1452    5614.9187    10837.064 1.6054716e+08 
 2083400         1917   0.50110477 3.5076953e-07    5175.9891     5636.677    10812.666 1.6054716e+08 
 2083500       1917.5   0.50291765 3.8999619e-06    5167.7013    5657.0692    10824.771 1.6054716e+08 
 2083600         1918   0.50161723 -3.7323398e-06     5232.678    5642.4414    10875.119 1.6054716e+08 
 2083700       1918.5   0.50445605 2.8821999e-06    5195.8909    5674.3739    10870.265 1.6054716e+08 
 2083800         1919   0.49745573 -2.1753382e-06    5197.1494    5595.6308     10792.78 1.6054716e+08 
 2083900       1919.5   0.49449854 2.8350399e-06    5205.6297    5562.3669    10767.997 1.6054716e+08 
 2084000         1920   0.49269664 -6.3052485e-06    5159.2326    5542.0981    10701.331 1.6054716e+08 
 2084100       1920.5   0.50244406 1.0011348e-05    5159.8487    5651.7421    10811.591 1.6054716e+08 
 2084200         1921   0.49949168 -5.2348933e-06    5309.3027    5618.5321    10927.835 1.6054716e+08 
 2084300       1921.5    0.5012035 4.1111327e-06    5298.0815    5637.7875    10935.869 1.6054716e+08 
 2084400         1922   0.50506797 -2.5335683e-06    5217.8375    5681.2571    10899.095 1.6054716e+08 
 2084500       1922.5   0.50614963 2.4485649e-06    5241.2976    5693.4241    10934.722 1.6054716e+08 
 2084600         1923   0.50844563 -3.7102857e-06    5206.0474    5719.2507    10925.298 1.6054716e+08 
 2084700       1923.5    0.4971423 7.3889401e-06    5202.5241    5592.1051    10794.629 1.6054716e+08 
 2084800         1924   0.50088584 -5.6660311e-06    5239.5317    5634.2143    10873.746 1.6054716e+08 
 2084900       1924.5   0.49967988 3.3563874e-06    5230.6553    5620.6491    10851.304 1.6054716e+08 
 2085000         1925   0.49116589 2.8862431e-06    5220.1407    5524.8795     10745.02 1.6054716e+08 
 2085100       1925.5   0.49465927 -6.0022562e-08    5178.4833    5564.1748    10742.658 1.6054716e+08 
 2085200         1926   0.49752307 3.3836524e-07     5182.497    5596.3883    10778.885 1.6054716e+08 
 2085300       1926.5    0.5002041 -1.7916646e-07    5171.2689    5626.5458    10797.815 1.6054716e+08 
 2085400         1927   0.50561103 1.9703486e-06    5174.5947    5687.3656     10861.96 1.6054716e+08 
 2085500       1927.5   0.50251985 -1.9589927e-06    5238.3465    5652.5945    10890.941 1.6054716e+08 
 2085600         1928   0.49237909 6.0671747e-06     5244.409    5538.5262    10782.935 1.6054716e+08 
 2085700       1928.5   0.50116605 -2.4651357e-06    5142.4016    5637.3663    10779.768 1.6054716e+08 
 2085800         1929   0.49967064 3.2309004e-06    5146.9229    5620.5452    10767.468 1.6054716e+08 
 2085900       1929.5   0.50188004 7.695342e-07    5244.6918    5645.3977    10890.089 1.6054716e+08 
 2086000         1930    0.5025526 -2.1006938e-06    5235.4349    5652.9629    10888.398 1.6054716e+08 
 2086100       1930.5   0.50217869 2.4415471e-06    5132.8446    5648.7569    10781.602 1.6054716e+08 
 2086200         1931   0.50443459 1.3333161e-06    5141.8623    5674.1325    10815.995 1.6054716e+08 
 2086300       1931.5   0.49803433 3.1352259e-07    5087.0445    5602.1392    10689.184 1.6054716e+08 
 2086400         1932   0.49737892 -3.1851805e-06    5076.3565    5594.7667    10671.123 1.6054716e+08 
 2086500       1932.5   0.50666211 3.3484253e-06    5087.1911    5699.1887     10786.38 1.6054716e+08 
 2086600         1933   0.49517806 1.4676871e-06    5167.6116    5570.0104    10737.622 1.6054716e+08 
 2086700       1933.5   0.50133298 1.3600821e-06    5135.9462     5639.244     10775.19 1.6054716e+08 
 2086800         1934   0.50048015 8.8055636e-07    5120.7698     5629.651    10750.421 1.6054716e+08 
 2086900       1934.5   0.49791992 -5.3890312e-06    5108.1943    5600.8523    10709.047 1.6054716e+08 
 2087000         1935   0.50420389 9.1807343e-06     5089.197    5671.5375    10760.734 1.6054716e+08 
 2087100       1935.5   0.50101096 -6.1083967e-06    5187.1743    5635.6218    10822.796 1.6054716e+08 
 2087200         1936   0.50182192 7.3562819e-06    5205.2224    5644.7439    10849.966 1.6054716e+08 
 2087300       1936.5   0.50314419 -5.0379867e-06    5137.4375    5659.6174    10797.055 1.6054716e+08 
 2087400         1937   0.49992064 4.2753365e-06    5159.2346    5623.3573    10782.592 1.6054716e+08 
 2087500       1937.5   0.49616429 -1.1603499e-06    5199.6818     5581.104    10780.786 1.6054716e+08 
 2087600         1938   0.50036177 6.7322653e-07    5220.2469    5628.3194    10848.566 1.6054716e+08 
 2087700       1938.5   0.49779385 2.2146453e-06    5241.4969    5599.4341    10840.931 1.6054716e+08 
 2087800         1939   0.50220279 2.8982551e-06    5241.7873    5649.0281    10890.815 1.6054716e+08 
 2087900       1939.5   0.50402738 8.9916196e-07    5151.3373     5669.552    10820.889 1.6054716e+08 
 2088000         1940    0.5068374 -1.4103137e-06    5258.7536    5701.1605    10959.914 1.6054716e+08 
 2088100       1940.5   0.50513046 2.772215e-06    5274.8161      5681.96    10956.776 1.6054716e+08 
 2088200         1941    0.5039572 -2.9103356e-06    5151.8807    5668.7626    10820.643 1.6054716e+08 
 2088300       1941.5   0.49990748 7.3073819e-06    5148.9123    5623.2093    10772.122 1.6054716e+08 
 2088400         1942   0.50407786 -7.2608309e-06    5133.9349    5670.1198    10804.055 1.6054716e+08 
 2088500       1942.5   0.50475033 2.9170227e-06    5290.2161    5677.6841      10967.9 1.6054716e+08 
 2088600         1943   0.50526357 4.8849199e-07    5275.7697    5683.4573    10959.227 1.6054716e+08 
 2088700       1943.5   0.50359356 1.1936025e-06    5249.2988    5664.6722    10913.971 1.6054716e+08 
 2088800         1944   0.49920083 3.2410441e-06    5185.3449    5615.2605    10800.605 1.6054716e+08 
 2088900       1944.5   0.50532805 2.9881534e-06    5190.8422    5684.1826    10875.025 1.6054716e+08 
 2089000         1945   0.49635598 -2.3617631e-07    5084.1173    5583.2602    10667.378 1.6054716e+08 
 2089100       1945.5   0.49024566 3.0480283e-06    5148.8909    5514.5283    10663.419 1.6054716e+08 
 2089200         1946   0.49544929 -4.2317048e-06    5154.5728    5573.0614    10727.634 1.6054716e+08 
 2089300       1946.5   0.50084075 5.8290153e-06    5124.2846    5633.7071    10757.992 1.6054716e+08 
 2089400         1947   0.49597602 -1.0942297e-06    5156.9265    5578.9862    10735.913 1.6054716e+08 
 2089500       1947.5   0.49829721 3.2534195e-07    5169.7449    5605.0962    10774.841 1.6054716e+08 
 2089600         1948     0.496334 -1.3079648e-06    5124.9934     5583.013    10708.006 1.6054716e+08 
 2089700       1948.5   0.49738404 4.8829182e-06    5100.5911    5594.8244    10695.416 1.6054716e+08 
 2089800         1949   0.50856038 -2.6820188e-06    5068.5282    5720.5414     10789.07 1.6054716e+08 
 2089900       1949.5   0.49810723 9.809801e-06    5158.5499    5602.9591    10761.509 1.6054716e+08 
 2090000         1950    0.4985024 -7.6558451e-06    5205.5865    5607.4042    10812.991 1.6054716e+08 
 2090100       1950.5   0.49925378 1.0415915e-05    5129.6327    5615.8561    10745.489 1.6054716e+08 
 2090200         1951   0.50959257 -4.9975592e-07    5206.5511     5732.152    10938.703 1.6054716e+08 
 2090300       1951.5   0.50299931 5.3678806e-06    5239.9213    5657.9877    10897.909 1.6054716e+08 
 2090400         1952   0.49676499 -1.9549637e-06    5167.1083     5587.861    10754.969 1.6054716e+08 
 2090500       1952.5   0.49807891 4.0252852e-06    5145.0532    5602.6406    10747.694 1.6054716e+08 
 2090600         1953   0.49461347 1.6662038e-06     5131.473    5563.6596    10695.133 1.6054716e+08 
 2090700       1953.5   0.49010371 -1.2702473e-07    5218.4233    5512.9316    10731.355 1.6054716e+08 
 2090800         1954   0.49790683 8.4062902e-07    5030.2117     5600.705    10630.917 1.6054716e+08 
 2090900       1954.5   0.49671639 9.5872337e-07    5173.2481    5587.3144    10760.562 1.6054716e+08 
 2091000         1955   0.49889763 1.3151964e-06    5060.6019      5611.85    10672.452 1.6054716e+08 
 2091100       1955.5   0.50450859 1.2696915e-06    5068.2363    5674.9648    10743.201 1.6054716e+08 
 2091200         1956   0.49544566 1.9075205e-07     5070.423    5573.0205    10643.443 1.6054716e+08 
 2091300       1956.5   0.49271506 4.1771487e-06    5050.2109    5542.3053    10592.516 1.6054716e+08 
 2091400         1957   0.49246775 1.1030071e-06    5110.8633    5539.5235    10650.387 1.6054716e+08 
 2091500       1957.5   0.50218399 3.1988627e-07    5103.3104    5648.8166    10752.127 1.6054716e+08 
 2091600         1958   0.49144446 1.5604374e-06    5121.0909     5528.013    10649.104 1.6054716e+08 
 2091700       1958.5   0.49774888 4.1840916e-07      5128.03    5598.9283    10726.958 1.6054716e+08 
 2091800         1959   0.49889029 -3.4264041e-06    5159.7156    5611.7674    10771.483 1.6054716e+08 
 2091900       1959.5   0.49994092 7.2743167e-06    5160.6026    5623.5854    10784.188 1.6054716e+08 
 2092000         1960   0.50274239 -2.2476191e-06    5148.6774    5655.0978    10803.775 1.6054716e+08 
 2092100       1960.5     0.510211 1.6112856e-06    5164.9604    5739.1085    10904.069 1.6054716e+08 
 2092200         1961   0.50638685 -2.4865196e-06    5125.2039    5696.0925    10821.296 1.6054716e+08 
 2092300       1961.5   0.49540055 2.8196773e-06    5183.4155    5572.5131    10755.929 1.6054716e+08 
 2092400         1962   0.49511783 5.1307365e-06    5157.9369    5569.3329     10727.27 1.6054716e+08 
 2092500       1962.5   0.49168749 -2.4885419e-06     5121.057    5530.7467    10651.804 1.6054716e+08 
 2092600         1963   0.49760571 7.9473908e-06    5117.4402    5597.3179    10714.758 1.6054716e+08 
 2092700       1963.5   0.49895819 -3.2545213e-06    5115.5535    5612.5312    10728.085 1.6054716e+08 
 2092800         1964   0.49253376 8.7818696e-06     5141.311     5540.266    10681.577 1.6054716e+08 
 2092900       1964.5    0.4997147 -2.839827e-06    5096.2578    5621.0408    10717.299 1.6054716e+08 
 2093000         1965   0.50400968 6.0079668e-06    5037.2156    5669.3528    10706.568 1.6054716e+08 
 2093100       1965.5    0.5031373 -3.4103733e-06    5047.4693    5659.5399    10707.009 1.6054716e+08 
 2093200         1966   0.48998284 7.6916044e-06    5127.1584    5511.5719     10638.73 1.6054716e+08 
 2093300       1966.5   0.49749966 -4.772879e-06    5143.8702    5596.1249    10739.995 1.6054716e+08 
 2093400         1967   0.50093948 5.8929717e-06    5166.4335    5634.8178    10801.251 1.6054716e+08 
 2093500       1967.5   0.50730626 -1.7779467e-06    5120.4103    5706.4344    10826.845 1.6054716e+08 
 2093600         1968   0.50689127 3.2153166e-06    5183.5501    5701.7664    10885.317 1.6054716e+08 
 2093700       1968.5   0.50199631 4.2818682e-06    5176.4315    5646.7055    10823.137 1.6054716e+08 
 2093800         1969   0.49685611 -1.4512015e-06    5111.2322     5588.886    10700.118 1.6054716e+08 
 2093900       1969.5   0.50083141 1.9983621e-06    5069.2879    5633.6022     10702.89 1.6054716e+08 
 2094000         1970   0.50579823 1.3950296e-06    5175.1583    5689.4714     10864.63 1.6054716e+08 
 2094100       1970.5   0.50549652 -1.0598593e-06     5201.161    5686.0776    10887.239 1.6054716e+08 
 2094200         1971   0.49945157 2.2853179e-06     5148.795     5618.081    10766.876 1.6054716e+08 
 2094300       1971.5   0.49456808 -1.9717798e-06    5157.5036     5563.149    10720.653 1.6054716e+08 
 2094400         1972   0.49506943 2.7355281e-06    5126.8191    5568.7885    10695.608 1.6054716e+08 
 2094500       1972.5   0.49837489 -1.9189164e-06    5106.7441      5605.97    10712.714 1.6054716e+08 
 2094600         1973   0.49310391 2.4344306e-06     5221.056    5546.6793    10767.735 1.6054716e+08 
 2094700       1973.5   0.49397208 -4.3911162e-06    5121.6557     5556.445    10678.101 1.6054716e+08 
 2094800         1974   0.48997649 3.1271013e-06    5139.5049    5511.5006    10651.005 1.6054716e+08 
 2094900       1974.5   0.49977981 1.3551371e-06    5138.6297    5621.7732    10760.403 1.6054716e+08 
 2095000         1975   0.50006204 2.0269055e-07    5227.8852    5624.9479    10852.833 1.6054716e+08 
 2095100       1975.5   0.49623359 -1.1181213e-07    5203.0544    5581.8836    10784.938 1.6054716e+08 
 2095200         1976   0.49755333 6.8966981e-07    5122.0077    5596.7286    10718.736 1.6054716e+08 
 2095300       1976.5   0.49302696 1.2757501e-06    5091.5226    5545.8138    10637.336 1.6054716e+08 
 2095400         1977   0.50436395 5.1547995e-06    5175.8313    5673.3379    10849.169 1.6054716e+08 
 2095500       1977.5   0.50772559 -5.3204413e-06    5220.0907    5711.1513    10931.242 1.6054716e+08 
 2095600         1978   0.50303539 7.3674836e-06    5189.4836    5658.3936    10847.877 1.6054716e+08 
 2095700       1978.5    0.5027121 -5.298089e-06    5175.4594     5654.757    10830.216 1.6054716e+08 
 2095800         1979   0.50694159 6.5352595e-06     5232.353    5702.3324    10934.685 1.6054716e+08 
 2095900       1979.5   0.50414577 -1.7394171e-06    5186.9185    5670.8837    10857.802 1.6054716e+08 
 2096000         1980   0.49551524 3.4165303e-06    5106.5122    5573.8032    10680.315 1.6054716e+08 
 2096100       1980.5   0.49411369 -1.5903774e-06    5124.9177    5558.0379    10682.956 1.6054716e+08 
 2096200         1981   0.49897174 1.4760747e-06    5191.5999    5612.6836    10804.283 1.6054716e+08 
 2096300       1981.5   0.50084608 2.9901504e-06    5139.3742    5633.7671    10773.141 1.6054716e+08 
 2096400         1982   0.50274424 -3.3016602e-06    5182.5958    5655.1186    10837.714 1.6054716e+08 
 2096500       1982.5    0.5044557 6.0887913e-06    5220.7564      5674.37    10895.126 1.6054716e+08 
 2096600         1983    0.5016699 -3.8054733e-06     5162.488    5643.0339    10805.522 1.6054716e+08 
 2096700       1983.5    0.4958293 4.8889458e-06    5224.0417    5577.3358    10801.378 1.6054716e+08 
 2096800         1984   0.50267293 -2.2544978e-06    5190.9839    5654.3165      10845.3 1.6054716e+08 
 2096900       1984.5   0.49047649 4.312378e-06    5153.8966    5517.1248    10671.021 1.6054716e+08 
 2097000         1985    0.4991792 -1.2051827e-06     5132.184    5615.0172    10747.201 1.6054716e+08 
 2097100       1985.5   0.49985643 3.0213584e-06    5165.4108     5622.635    10788.046 1.6054716e+08 
 2097200         1986   0.50627112 1.3990857e-06    5146.3654    5694.7907    10841.156 1.6054716e+08 
 2097300       1986.5   0.50060587 -7.0003167e-07    5230.2464    5631.0651    10861.311 1.6054716e+08 
 2097400         1987   0.49843662 1.5012517e-06    5153.7953    5606.6644     10760.46 1.6054716e+08 
 2097500       1987.5   0.50132004 4.9642139e-07    5127.0737    5639.0984    10766.172 1.6054716e+08 
 2097600         1988   0.49703899 2.0942066e-06    5231.7812    5590.9431    10822.724 1.6054716e+08 
 2097700       1988.5   0.50102009 -1.2020787e-06    5168.8303    5635.7245    10804.555 1.6054716e+08 
 2097800         1989   0.50911609 1.2122874e-06    5097.7041    5726.7923    10824.496 1.6054716e+08 
 2097900       1989.5   0.49546267 4.8869717e-06    5144.9986    5573.2119     10718.21 1.6054716e+08 
 2098000         1990   0.50237852 -3.4256179e-06    5161.4179    5651.0048    10812.423 1.6054716e+08 
 2098100       1990.5   0.49599908 3.5927518e-06    5216.0284    5579.2456    10795.274 1.6054716e+08 
 2098200         1991   0.49470989 -1.0791608e-06    5220.8883    5564.7442    10785.632 1.6054716e+08 
 2098300       1991.5   0.50126738 2.386084e-06    5083.6868    5638.5061    10722.193 1.6054716e+08 
 2098400         1992   0.50204974 3.755875e-06     5135.336    5647.3065    10782.643 1.6054716e+08 
 2098500       1992.5   0.49398741 -4.3988132e-06    5155.2429    5556.6174     10711.86 1.6054716e+08 
 2098600         1993    0.4970708 2.8245339e-06    5135.4743    5591.3009    10726.775 1.6054716e+08 
 2098700       1993.5   0.49792694 -4.9082906e-08       5160.6    5600.9312    10761.531 1.6054716e+08 
 2098800         1994   0.50771991 4.6948237e-06    5166.3508    5711.0874    10877.438 1.6054716e+08 
 2098900       1994.5   0.50171826 -3.4964507e-06    5151.0254    5643.5778    10794.603 1.6054716e+08 
 2099000         1995   0.50412752 5.8922747e-06    5174.6592    5670.6784    10845.338 1.6054716e+08 
 2099100       1995.5    0.4980092 -2.2334729e-06    5172.8227    5601.8565    10774.679 1.6054716e+08 
 2099200         1996   0.50356212 3.7669183e-06    5121.4529    5664.3185    10785.771 1.6054716e+08 
 2099300       1996.5   0.49918801 -4.5568075e-06    5157.8681    5615.1163    10772.984 1.6054716e+08 
 2099400         1997   0.50497405 2.4653122e-06    5126.3828    5680.2006    10806.583 1.6054716e+08 
 2099500       1997.5   0.50499179 -8.9972099e-08      5178.17    5680.4002     10858.57 1.6054716e+08 
 2099600         1998   0.50161741 -1.7012798e-07    5206.5082    5642.4434    10848.952 1.6054716e+08 
 2099700       1998.5   0.50407719 1.7993388e-06    5119.6263    5670.1123    10789.739 1.6054716e+08 
 2099800         1999   0.49799143 -2.46755e-06    5134.7085    5601.6566    10736.365 1.6054716e+08 
 2099900       1999.5   0.49884505 -3.7418593e-06    5125.5045    5611.2586    10736.763 1.6054716e+08 
 2100000         2000   0.50091324 8.1646498e-06    5203.9013    5634.5225    10838.424 1.6054716e+08 
Loop time of 6961 on 1 procs for 300000 steps with 7500 atoms

Performance: 18618.009 tau/day, 43.097 timesteps/s
99.8% CPU use with 1 MPI tasks x 1 OpenMP threads

MPI task timing breakdown:
Section |  min time  |  avg time  |  max time  |%varavg| %total
---------------------------------------------------------------
Pair    | 6.3664     | 6.3664     | 6.3664     |   0.0 |  0.09
Bond    | 112.42     | 112.42     | 112.42     |   0.0 |  1.61
Neigh   | 6544.1     | 6544.1     | 6544.1     |   0.0 | 94.01
Comm    | 160.36     | 160.36     | 160.36     |   0.0 |  2.30
Output  | 10.014     | 10.014     | 10.014     |   0.0 |  0.14
Modify  | 123.71     | 123.71     | 123.71     |   0.0 |  1.78
Other   |            | 4.034      |            |       |  0.06

Nlocal:    7500 ave 7500 max 7500 min
Histogram: 1 0 0 0 0 0 0 0 0 0
Nghost:    183 ave 183 max 183 min
Histogram: 1 0 0 0 0 0 0 0 0 0
Neighs:    0 ave 0 max 0 min
Histogram: 1 0 0 0 0 0 0 0 0 0

Total # of neighbors = 0
Ave neighs/atom = 0
Ave special neighs/atom = 5.2
Neighbor list builds = 25339
Dangerous builds = 2188
write_restart restart.time*

#This section  of codes allows looping over the list of T values
clear
OMP_NUM_THREADS environment is not set. Defaulting to 1 thread. (../comm.cpp:94)
  using 1 OpenMP thread(s) per MPI task
next mix_steps
jump in.run_loop loop  #jumps back to loop label

Total wall time: 3:40:40
