LAMMPS (3 Mar 2020)
OMP_NUM_THREADS environment is not set. Defaulting to 1 thread. (../comm.cpp:94)
  using 1 OpenMP thread(s) per MPI task
#
#
# VARIABLES
variable T         equal  0.50 #0.10 0.36 0.70
variable num       equal  1
variable N         equal  100 #200 # 250 300 350
variable box       equal  50
variable t_step    equal  0.005
variable mix_steps equal  200000
variable mix_tau   equal  ${t_step}*${mix_steps}
variable mix_tau   equal  0.005*${mix_steps}
variable mix_tau   equal  0.005*200000
variable run_steps equal  200000
variable run_tau   equal  ${t_step}*${run_steps}
variable run_tau   equal  0.005*${run_steps}
variable run_tau   equal  0.005*200000

# PARAMETERS
units lj
atom_style molecular
neighbor 0.4 bin
neigh_modify every 1 delay 1 check yes
comm_modify vel yes
comm_modify cutoff 1.9
#KG added to remove "Communication cutoff 1.52 is shorter than a bond length
#based estimate of 1.87. This may lead to errors" warning.

# READ
read_data rigid_rods.file
  orthogonal box = (-5 -5 -5) to (5 5 5)
  1 by 1 by 1 MPI processor grid
  reading atoms ...
  10 atoms
  scanning bonds ...
  1 = max bonds/atom
  scanning angles ...
  1 = max angles/atom
  reading bonds ...
  9 bonds
  reading angles ...
  8 angles
  2 = max # of 1-2 neighbors
  2 = max # of 1-3 neighbors
  4 = max # of 1-4 neighbors
  6 = max # of special neighbors
  special bonds CPU = 0.0153191 secs
  read_data CPU = 0.0458372 secs

#  BONDS
bond_style harmonic
special_bonds lj 0 1 1
  2 = max # of 1-2 neighbors
  2 = max # of 1-3 neighbors
  4 = max # of 1-4 neighbors
  6 = max # of special neighbors
  special bonds CPU = 0.0123441 secs
bond_coeff * 500.0 0.98  # the wildcard (*) means to have the same for all bond types.
bond_coeff 5 50.0 0.98

# ANGLES
angle_style harmonic
angle_coeff * 500.0  180
angle_coeff 4 0.1  180
angle_coeff 5 0.1  180

# PAIR lj/cut --with interactions, to steady state
pair_style lj/cut 1.0
pair_modify shift yes
pair_coeff * * 1  1.0  1.12

# THERMAL
timestep ${t_step}
timestep 0.005
thermo   100
thermo_style custom step time temp press pe ke etotal vol
thermo_modify norm no
reset_timestep 0

# FIX
fix 2 all nph iso 0.5 0.5 100
fix 3 all langevin 0.5 0.5 1 123456
#run 50000

#unfix 3
#fix 4 all nve
#fix 5 all langevin ${T} ${T} 1 123456
fix recen1 all recenter INIT INIT INIT


# DUMP OUTPUT
dump  1  all custom 1000 output.dump id mol type x y z vx vy vz

# FIX for RDF
#comm_modify cutoff 25.0
#compute   3 all rdf 500 5 6 cutoff 24.0
#fix       3 all ave/time 1 ${run_steps} ${run_steps} c_3[*] file rdf_T_${T}_N_${N}_box_${box}_tau_${run_tau}.rdf mode vector


# RUN
run ${run_steps}
run 200000
Neighbor list info ...
  update every 1 steps, delay 1 steps, check yes
  max neighbors/atom: 2000, page size: 100000
  master list distance cutoff = 1.52
  ghost atom cutoff = 1.9
  binsize = 0.76, bins = 14 14 14
  1 neighbor lists, perpetual/occasional/extra = 1 0 0
  (1) pair lj/cut, perpetual
      attributes: half, newton on
      pair build: half/bin/newton
      stencil: half/bin/3d/newton
      bin: standard
Per MPI rank memory allocation (min/avg/max) = 7.846 | 7.846 | 7.846 Mbytes
Step Time Temp Press PotEng KinEng TotEng Volume 
       0            0            0 5.2950237e-16 1.1130334e-27            0 1.1130334e-27         1000 
     100          0.5   0.32150359 0.00011515475    1.8393512    4.3402984    6.1796496     998.2897 
     200            1   0.43586596   0.02740753    5.2261588    5.8841904    11.110349    993.16571 
     300          1.5   0.59211824 -0.027450279    7.4530775    7.9935962    15.446674    984.74846 
     400            2   0.63200691  0.017516685    8.2240282    8.5320933    16.756122    973.09393 
     500          2.5   0.60488309  0.022952737    4.7449828    8.1659217    12.910905    958.44217 
     600            3   0.51901419 0.0051142148    8.2431709    7.0066916    15.249863    940.97031 
     700          3.5    0.7702864 0.0021672761     7.830241    10.398866    18.229107     920.8915 
     800            4    1.0849356  -0.06809329    7.8131343     14.64663    22.459765      898.489 
     900          4.5   0.82462934  0.012728705    4.0945609    11.132496    15.227057    874.02795 
    1000            5   0.55082915 0.0043493349    6.5187701    7.4361935    13.954964    847.96586 
    1100          5.5   0.50674223 -0.022477509    4.7993105    6.8410202    11.640331    820.63769 
    1200            6   0.62619891  0.017355521    5.6037896    8.4536853    14.057475    792.42164 
    1300          6.5   0.52868956 -0.017337405    6.8266865    7.1373091    13.963996    763.73165 
    1400            7   0.54469299 0.0094874465    6.3801244    7.3533554     13.73348    734.88757 
    1500          7.5   0.47889482   0.04802012    6.2997393    6.4650801    12.764819    706.25238 
    1600            8   0.72871081  0.018248742      5.38865    9.8375959    15.226246    678.11355 
    1700          8.5   0.65846754 0.0066193687    6.7125626    8.8893117    15.601874    650.74009 
    1800            9   0.52626355 -0.012653123    5.5479282    7.1045579    12.652486    624.35998 
    1900          9.5   0.66695604 0.00032373794    5.6739362    9.0039065    14.677843    599.14006 
    2000           10   0.64767489 -0.029526164     5.643738     8.743611    14.387349    575.19567 
    2100         10.5   0.69170575  0.022245274    5.8633667    9.3380277    15.201394    552.58492 
    2200           11   0.61939921 -0.055768488    6.0655884    8.3618893    14.427478    531.34077 
    2300         11.5   0.49726037  0.048536151    9.1824424     6.713015    15.895457     511.4534 
    2400           12   0.58416661 -0.037749505    6.1294281    7.8862493    14.015677    492.88447 
    2500         12.5   0.44690067  0.006201145     4.601353    6.0331591    10.634512    475.55562 
    2600           13   0.48492777  0.023501446    7.4789122    6.5465249    14.025437    459.39518 
    2700         13.5   0.40074499 -0.044316984    9.3274835    5.4100574    14.737541    444.31585 
    2800           14   0.54440351  -0.03047649    9.1937062    7.3494474    16.543154    430.23102 
    2900         14.5   0.50401206  0.034725276    5.0564786    6.8041628    11.860641     417.0398 
    3000           15   0.43818336  0.032355491    4.1351419    5.9154753    10.050617     404.6596 
    3100         15.5   0.58168217 -0.0067914455    6.0278188    7.8527092    13.880528    392.98956 
    3200           16   0.73652334  -0.02542109    6.6689925    9.9430651    16.612058    381.95723 
    3300         16.5   0.65620637 -0.034912597    6.7257287     8.858786    15.584515     371.4984 
    3400           17   0.40517878 -0.00083862435    5.7069045    5.4699135    11.176818     361.5518 
    3500         17.5   0.39137506  0.010817448    7.5433591    5.2835633    12.826922    352.06331 
    3600           18   0.54443014 -0.096847732    7.0118705    7.3498069    14.361677    342.98525 
    3700         18.5   0.71667647  0.065126184    4.8396358    9.6751323    14.514768    334.28611 
    3800           19   0.53584626 -0.0025849531    3.6746705    7.2339245    10.908595    325.92123 
    3900         19.5   0.42478694 -0.084202865    6.1688552    5.7346237    11.903479    317.86238 
    4000           20   0.61408207  0.048238764    4.7332608    8.2901079    13.023369    310.08678 
    4100         20.5   0.31239479 -0.027857884    5.1169499    4.2173297    9.3342796    302.57801 
    4200           21   0.44656781  0.043258579    4.9225279    6.0286654    10.951193     295.3172 
    4300         21.5   0.60960254  0.015531571    5.2741021    8.2296343    13.503736    288.29774 
    4400           22   0.49595375 -0.010148543    4.0423562    6.6953756    10.737732    281.49702 
    4500         22.5   0.51949377  -0.11993635    5.4483621    7.0131659    12.461528    274.91253 
    4600           23   0.51638095  0.083214462    5.6407926    6.9711428    12.611935    268.53062 
    4700         23.5    0.5699747  0.062027143    5.3387132    7.6946585    13.033372    262.34742 
    4800           24   0.58588871  -0.21913215    7.7989592    7.9094976    15.708457     256.3575 
    4900         24.5   0.29682327   0.18750133    10.432218    4.0071141    14.439333    250.53947 
    5000           25   0.59152485 -0.062370703    10.499966    7.9855855    18.485552    244.90989 
    5100         25.5   0.78772098 -0.058875755    8.0329198    10.634233    18.667153    239.46029 
    5200           26   0.50011258  0.033520844    12.476798    6.7515199    19.228318    234.19152 
    5300         26.5   0.77991878 -0.0099376713    4.9092592    10.528903    15.438163    229.10567 
    5400           27   0.77906532  0.062060723    5.7908405    10.517382    16.308222    224.19169 
    5500         27.5   0.51635515  0.025996699    5.4747015    6.9707945    12.445496    219.44174 
    5600           28   0.61596534  0.028123973    6.9017827    8.3155321    15.217315    214.84839 
    5700         28.5    0.4369093   0.13730558    6.1629413    5.8982756    12.061217    210.41258 
    5800           29   0.51394579 -0.052855457    6.2368125    6.9382681    13.175081    206.12808 
    5900         29.5   0.62412624   0.28372204    9.5596882    8.4257043    17.985393    201.98845 
    6000           30    0.6994287  -0.16610285    6.5485327    9.4422875     15.99082    197.99324 
    6100         30.5   0.68959236   0.18198251    4.4530218    9.3094968    13.762519    194.13842 
    6200           31    0.6260107 -0.049510278    3.9663589    8.4511445    12.417503    190.42024 
    6300         31.5   0.47993839 -0.047900261    4.0822167    6.4791682    10.561385    186.82986 
    6400           32   0.49383966  0.015046702    7.7618077    6.6668354    14.428643    183.36129 
    6500         32.5   0.37591797  -0.19813565    9.3808948    5.0748926    14.455787    180.01233 
    6600           33   0.66722287  0.064933967    2.9724804    9.0075087    11.979989    176.78035 
    6700         33.5    0.6492751  0.038276882    5.9391511    8.7652138    14.704365    173.65462 
    6800           34   0.68752753   0.03684363    4.5305602    9.2816217    13.812182    170.63675 
    6900         34.5   0.45149715  0.010496167    6.8510446    6.0952115    12.946256    167.71598 
    7000           35   0.49908746  -0.12442246     2.981154    6.7376808    9.7188348    164.89085 
    7100         35.5   0.40283773   0.15821164    6.1301649    5.4383093    11.568474    162.15434 
    7200           36   0.35138934 -0.050233227    5.0752691    4.7437561    9.8190252    159.51249 
    7300         36.5   0.44009891  -0.10455294    3.4453684    5.9413353    9.3867037    156.94893 
    7400           37   0.31952545    0.2718954    4.7538044    4.3135936    9.0673979    154.46686 
    7500         37.5   0.42340115 -0.081149263    6.5308987    5.7159156    12.246814    152.06491 
    7600           38   0.69949134 0.0069751312    4.1516397    9.4431331    13.594773     149.7412 
    7700         38.5   0.44452353   0.14680693    5.0842565    6.0010677    11.085324    147.48993 
    7800           39   0.53026815  -0.10011043    5.5368149      7.15862    12.695435    145.30573 
    7900         39.5   0.30857903  -0.11313253    4.8250538     4.165817    8.9908708     143.1835 
    8000           40   0.40804171 0.0075457347    3.8195934    5.5085631    9.3281565    141.12254 
    8100         40.5   0.56000493 -0.046639686    4.0407067    7.5600665    11.600773    139.12279 
    8200           41   0.46409725  0.045183367     4.969183    6.2653128    11.234496    137.18351 
    8300         41.5   0.60936218  -0.12009553    6.2385546    8.2263895    14.464944     135.3006 
    8400           42   0.64767942  0.058243728    6.1599807    8.7436722    14.903653    133.47105 
    8500         42.5   0.59841764  -0.10740086    5.4889845    8.0786381    13.567623    131.69409 
    8600           43   0.40807338  0.098080501    6.3071343    5.5089906    11.816125    129.96105 
    8700         43.5   0.64967765     0.199283     3.787232    8.7706483     12.55788    128.27021 
    8800           44   0.44934553  -0.10516707    6.9172432    6.0661646    12.983408    126.62432 
    8900         44.5   0.53483344    0.1191753    5.3849394    7.2202515    12.605191     125.0209 
    9000           45   0.71286464   0.25240188    6.1069527    9.6236727    15.730625    123.46172 
    9100         45.5   0.46629423  0.037996995    11.462658    6.2949722     17.75763     121.9498 
    9200           46   0.62330357  0.012245581    4.8592167    8.4145982    13.273815    120.47585 
    9300         46.5   0.47850327  0.073734324    6.3440909    6.4597941    12.803885    119.03842 
    9400           47   0.71839394   0.13010106    4.7028807    9.6983181    14.401199    117.63424 
    9500         47.5   0.43540788  -0.29772379    6.6416695    5.8780063    12.519676    116.26522 
    9600           48   0.39143599   0.38758064    5.8460175    5.2843859    11.130403    114.92605 
    9700         48.5   0.41835661   -0.3361431    7.7303791    5.6478143    13.378193    113.61812 
    9800           49   0.45010364   0.29714305    5.4899656    6.0763992    11.566365    112.33681 
    9900         49.5   0.44719139 -0.067733614    7.0007993    6.0370837    13.037883    111.08611 
   10000           50   0.48532202 -0.038896917    5.5243576    6.5518473    12.076205    109.86273 
   10100         50.5    0.5380518   0.17693214    6.0709192    7.2636994    13.334619     108.6651 
   10200           51   0.93301856  -0.39480646    5.0510318    12.595751    17.646782    107.49476 
   10300         51.5   0.67711984   0.29190581    5.1980074    9.1411178    14.339125      106.345 
   10400           52   0.71343944   0.29895544    6.5516607    9.6314324    16.183093    105.22127 
   10500         52.5   0.60652479  -0.75051135    10.247199    8.1880847    18.435284    104.11932 
   10600           53   0.99272672   0.56347992    7.3463409    13.401811    20.748152    103.03659 
   10700         53.5   0.73457719  -0.26237584    6.7183057    9.9167921    16.635098    101.97861 
   10800           54   0.65329186   0.40972364    6.7358418    8.8194402    15.555282    100.94024 
   10900         54.5   0.56908273  -0.25510711    2.8808707    7.6826169    10.563488    99.922534 
   11000           55   0.28167122   0.12187923    4.3944915    3.8025615    8.1970531    98.921092 
   11100         55.5   0.52443676   0.42748528    3.8354524    7.0798962    10.915349    97.938943 
   11200           56   0.42976867  -0.49287321    6.5144851    5.8018771    12.316362     96.98091 
   11300         56.5   0.61698403   -0.1711099    6.1104932    8.3292844    14.439778    96.037509 
   11400           57   0.52121805   0.60969468    4.6157241    7.0364436    11.652168    95.112652 
   11500         57.5   0.58482197  -0.14100323    7.8665873    7.8950966    15.761684    94.208549 
   11600           58   0.73141797  -0.37513784    6.2520063    9.8741426    16.126149    93.317842 
   11700         58.5   0.54253422   0.26906788    9.9669384     7.324212     17.29115    92.443046 
   11800           59   0.50487312  0.012963399    7.5730151    6.8157872    14.388802    91.586714 
   11900         59.5   0.51499909 0.0016151912    5.3294734    6.9524877    12.281961    90.742751 
   12000           60   0.55884136   0.12198298    6.7284126    7.5443583    14.272771    89.910913 
   12100         60.5   0.44107211  -0.23792122    7.9600039    5.9544734    13.914477    89.091567 
   12200           61   0.51422579 0.0032037711     6.027445    6.9420482    12.969493    88.284291 
   12300         61.5   0.42857571   -0.4062466    9.8439313     5.785772    15.629703    87.488709 
   12400           62   0.46206771   0.23652481    5.1900498    6.2379141    11.427964    86.704596 
   12500         62.5    0.5173507  -0.22228332    5.2500502    6.9842345    12.234285    85.931531 
   12600           63   0.43261392  0.038698422    5.0893201     5.840288    10.929608    85.168272 
   12700         63.5   0.44876853   0.15776813    6.5064346    6.0583751     12.56481    84.418567 
   12800           64    0.6156185  -0.26177586    5.6938647    8.3108498    14.004714    83.679527 
   12900         64.5   0.41571419   0.28156532    6.2150916    5.6121416    11.827233    82.949677 
   13000           65   0.49150453  -0.46163139     6.003883    6.6353112    12.639194    82.231873 
   13100         65.5   0.82298253   0.44727095    3.9229666    11.110264    15.033231    81.525211 
   13200           66   0.36444845   0.12471503     6.870665    4.9200541    11.790719    80.829196 
   13300         66.5   0.49648099  -0.12609221    4.6980684    6.7024934    11.400562    80.144105 
   13400           67   0.80805334  0.097480093    4.9992576     10.90872    15.907978     79.46633 
   13500         67.5   0.71202005   -0.3356445    4.6158125    9.6122707    14.228083    78.796882 
   13600           68   0.54362894   0.33361436    5.4498227    7.3389907    12.788813    78.134883 
   13700         68.5   0.34652621  -0.32479451     6.029804    4.6781038    10.707908    77.481717 
   13800           69   0.50395039  -0.17098095    2.5216746    6.8033302    9.3250049    76.835074 
   13900         69.5   0.24110475   -0.2193283    5.0450153    3.2549141    8.2999294    76.196563 
   14000           70   0.61808137  -0.29835245    3.9211453    8.3440985    12.265244    75.565053 
   14100         70.5   0.67143874   0.43408161    5.0140646     9.064423    14.078488    74.939564 
   14200           71   0.58369422  -0.20922896    5.9944017     7.879872    13.874274    74.322666 
   14300         71.5   0.77735525   0.01646678    6.8395832    10.494296    17.333879     73.71586 
   14400           72   0.74787433   -0.1058215    5.8036002    10.096303    15.899904    73.116073 
   14500         72.5   0.42322009  -0.32799043    7.9963682    5.7134712    13.709839    72.522605 
   14600           73   0.67443231   0.46376458    4.3748728    9.1048362    13.479709    71.938948 
   14700         73.5   0.54811474  -0.30166486    6.7263291     7.399549    14.125878    71.366728 
   14800           74   0.56607562  0.046432658    4.6716983    7.6420209    12.313719    70.800748 
   14900         74.5   0.50911052 -0.097733727    4.1052514    6.8729921    10.978244    70.241385 
   15000           75   0.52601016   0.22216344    4.6128151    7.1011372    11.713952    69.690751 
   15100         75.5   0.53102402   0.27072182    5.7709524    7.1688243    12.939777    69.147393 
   15200           76   0.50512293   -0.3361091    9.7170728    6.8191596    16.536232    68.612052 
   15300         76.5   0.43921878  0.003508063    6.9063262    5.9294535     12.83578    68.084507 
   15400           77   0.52653556   0.13232681    4.1841561    7.1082301    11.292386    67.565346 
   15500         77.5   0.63370795  0.062851044    4.7964207    8.5550573    13.351478    67.054737 
   15600           78   0.62280351  -0.14438764    5.1781453    8.4078474    13.585993    66.557062 
   15700         78.5   0.59985942   0.23766744    5.0066609    8.0981022    13.104763    66.068962 
   15800           79   0.75357666   0.16683053    3.0171221    10.173285    13.190407    65.587736 
   15900         79.5   0.33223599  -0.40100804    7.1393329    4.4851859    11.624519    65.112271 
   16000           80   0.37584623   0.23350267    6.2597883    5.0739242    11.333712    64.641891 
   16100         80.5   0.62993665  -0.17145791    4.4032621    8.5041448    12.907407     64.18004 
   16200           81    0.5133533  0.066162892    3.1908179    6.9302696    10.121088     63.72161 
   16300         81.5   0.43083055  -0.24406892    6.2146017    5.8162124    12.030814    63.269933 
   16400           82   0.58377207  0.085762241    5.6045287    7.8809229    13.485452    62.822589 
   16500         82.5   0.57336227   0.84590989    6.6919833    7.7403906    14.432374    62.381001 
   16600           83   0.51606716  -0.59030719    8.0427959    6.9669067    15.009703    61.947191 
   16700         83.5   0.46429788  -0.12203223    4.5959066    6.2680213    10.863928     61.51592 
   16800           84   0.58833029 -0.0086452333    3.9227029     7.942459    11.865162    61.086915 
   16900         84.5   0.53208796   0.17504536     6.874661    7.1831874    14.057848    60.662962 
   17000           85   0.84386567  -0.45939034    3.9106319    11.392186    15.302818    60.245558 
   17100         85.5   0.53849552  -0.20554856    7.9691569    7.2696896    15.238846    59.831923 
   17200           86   0.63092058   0.36489937    6.7137307    8.5174278    15.231158    59.422122 
   17300         86.5   0.44102879  -0.54509983    8.1910929    5.9538886    14.144982    59.016634 
   17400           87   0.70149045   0.61481078    4.5102624     9.470121    13.980383    58.614267 
   17500         87.5   0.82289224  -0.41358792    5.5163446    11.109045     16.62539    58.216057 
   17600           88   0.38033422   0.78281194    8.9592348     5.134512    14.093747    57.821926 
   17700         88.5   0.69119972  -0.50509936    6.0797515    9.3311962    15.410948    57.433029 
   17800           89   0.38455532   0.34609522     8.700752    5.1914968    13.892249    57.048706 
   17900         89.5   0.56200498   0.14033672    4.9062472    7.5870672    12.493314    56.667446 
   18000           90   0.56993044  -0.64484686    5.2004726    7.6940609    12.894534      56.2907 
   18100         90.5   0.26366972   0.69645984    5.0901713    3.5595412    8.6497125     55.91326 
   18200           91   0.43349872  -0.64700046    5.2525953    5.8522328    11.104828    55.542816 
   18300         91.5   0.46527031 -0.0048246745    6.5634699    6.2811491    12.844619    55.175331 
   18400           92   0.46425325   0.28519917    6.7489485    6.2674189    13.016367    54.811588 
   18500         92.5   0.42565918  -0.21738886    5.2900054    5.7463989    11.036404    54.453103 
   18600           93   0.47329475   0.20651085    5.3647219    6.3894791    11.754201    54.098911 
   18700         93.5   0.79584764   0.17924472    3.6353771    10.743943     14.37932      53.7495 
   18800           94   0.63904162  -0.17092302    3.0721343    8.6270619    11.699196    53.404484 
   18900         94.5   0.49441682 -0.053493436    5.3262959     6.674627    12.000923    53.062981 
   19000           95   0.44371787   0.38974707    4.6019803    5.9901913    10.592172    52.726884 
   19100         95.5   0.48728124  -0.65801305    6.5595094    6.5782967    13.137806    52.395586 
   19200           96   0.48183906   0.33645214    9.9597397    6.5048273    16.464567    52.066927 
   19300         96.5   0.67208953 0.0015067019     6.299757    9.0732086    15.372966    51.743112 
   19400           97   0.70471307   0.57857021     5.924936    9.5136265    15.438563    51.423174 
   19500         97.5   0.63833105 -0.0094013556    7.4870355    8.6174692    16.104505    51.107317 
   19600           98   0.61729718  0.015266765    4.8012726    8.3335119    13.134784    50.795007 
   19700         98.5   0.59169061  -0.11883559    6.1422242    7.9878232    14.130047    50.485001 
   19800           99   0.71282101  -0.21779942    5.1496617    9.6230836    14.772745    50.178126 
   19900         99.5   0.82148337  0.093422428    7.9055177    11.090025    18.995543    49.874247 
   20000          100   0.56387312  -0.64881078    5.2878202    7.6122872    12.900107    49.573598 
   20100        100.5    0.5441149   0.08931091    7.1789401    7.3455512    14.524491     49.27464 
   20200          101   0.44782191  0.010825928    8.0785186    6.0455957    14.124114    48.978293 
   20300        101.5   0.55234431  -0.14818111    5.9793792    7.4566482    13.436027    48.685096 
   20400          102   0.66116242   0.38178061    7.1378091    8.9256927    16.063502    48.394667 
   20500        102.5   0.69060662  -0.18527181    8.3576933    9.3231894    17.680883    48.105896 
   20600          103   0.62697926   0.75717109     4.985759      8.46422    13.449979      47.8197 
   20700        103.5   0.60180764  -0.68513216    7.0373811    8.1244032    15.161784    47.536188 
   20800          104   0.46161732   0.42752745    6.0375426    6.2318339    12.269376    47.256263 
   20900        104.5   0.46565197   0.20664813    4.2227931    6.2863016    10.509095    46.979847 
   21000          105   0.58392015   0.11575691    1.9037532     7.882922    9.7866751    46.706476 
   21100        105.5   0.47449603   0.45855636    3.7185872    6.4056964    10.124284    46.436161 
   21200          106   0.37144125 -0.057610771    4.0407111    5.0144568     9.055168    46.168328 
   21300        106.5   0.39197345   0.28434046    5.8130943    5.2916416    11.104736    45.902335 
   21400          107   0.49032534  -0.57107465     6.041136    6.6193922    12.660528    45.639194 
   21500        107.5   0.40079403   0.51108723    5.1924002    5.4107194     10.60312    45.378186 
   21600          108   0.41739272   -0.1163921    5.2851898    5.6348017    10.919992    45.120224 
   21700        108.5   0.47813524  -0.23656964    6.3475779    6.4548257    12.802404    44.865127 
   21800          109   0.55266095   0.20683716    5.2599999    7.4609229    12.720923    44.610455 
   21900        109.5   0.52135334  -0.82759504     7.446749    7.0382701    14.485019    44.357526 
   22000          110   0.46901772   0.30999153    5.4897138    6.3317393    11.821453    44.106809 
   22100        110.5   0.48231949   0.50053068    6.5692989    6.5113131    13.080612    43.858571 
   22200          111   0.57309454    0.5320478    9.0113169    7.7367763    16.748093    43.613324 
   22300        111.5   0.81472289  -0.10861909    5.7494704    10.998759    16.748229    43.371487 
   22400          112   0.59768294  -0.36878635    6.8837405    8.0687196     14.95246    43.133103 
   22500        112.5   0.82755026   0.27641217    4.5102937    11.171929    15.682222    42.896688 
   22600          113   0.89088318  0.057381508    6.7155641    12.026923    18.742487    42.661323 
   22700        113.5    0.6556428 -0.023848136    8.1889205    8.8511779    17.040098    42.427954 
   22800          114   0.66510859   0.49708955    5.6815346     8.978966    14.660501    42.197352 
   22900        114.5   0.55172061   0.33602466     8.161346    7.4482282    15.609574    41.969393 
   23000          115   0.48240922  -0.56216602    5.7067279    6.5125244    12.219252    41.743925 
   23100        115.5   0.57259513    1.4222558      6.89961    7.7300342    14.629644    41.520189 
   23200          116   0.58937537  -0.42160919    4.5549012    7.9565676    12.511469    41.300004 
   23300        116.5   0.22643988   0.15920768    5.0786494    3.0569383    8.1355878    41.081495 
   23400          117   0.28837231   -0.5647226    4.7013181    3.8930261    8.5943442    40.865157 
   23500        117.5   0.33326553   0.38518346     6.566577    4.4990846    11.065662    40.650582 
   23600          118   0.61165936  0.081674741     4.767437    8.2574013    13.024838    40.437896 
   23700        118.5   0.61501594  -0.29349568     7.770822    8.3027151    16.073537    40.226366 
   23800          119    0.5380997   0.66825767    5.2349783     7.264346    12.499324    40.013996 
   23900        119.5   0.64876422  -0.61257324    6.9904811    8.7583169    15.748798    39.805112 
   24000          120   0.65700801  -0.51553814    5.7146582    8.8696082    14.584266    39.597527 
   24100        120.5   0.63322123   0.25840724    7.2111072    8.5484866    15.759594    39.392251 
   24200          121   0.51805758   0.53588783    5.4648507    6.9937773    12.458628    39.188715 
   24300        121.5   0.61306331  -0.49051829    5.6453748    8.2763547     13.92173    38.986601 
   24400          122   0.45150173   0.50655018    4.6416135    6.0952734    10.736887    38.784846 
   24500        122.5   0.44131185   -1.1437036    9.2840341      5.95771    15.241744    38.584479 
   24600          123   0.71492174     1.280813    7.1308509    9.6514434    16.782294    38.385099 
   24700        123.5   0.67646448  -0.90984772    7.1859323    9.1322705    16.318203    38.189374 
   24800          124   0.48969351   0.95455855    5.9881958    6.6108624    12.599058     37.99419 
   24900        124.5   0.40511929   0.05227061    6.8369354    5.4691104    12.306046    37.800715 
   25000          125   0.54793367   -0.3153642    4.8713633    7.3971046    12.268468    37.609174 
   25100        125.5   0.47469921   0.64786481    7.4738158    6.4084394    13.882255     37.41911 
   25200          126    0.3709259  -0.46545777    3.6833752    5.0074997    8.6908748    37.230005 
   25300        126.5   0.32227111  -0.64414071    8.1058371      4.35066    12.456497    37.041503 
   25400          127   0.94339494  -0.13945895    6.4307183    12.735832     19.16655    36.853918 
   25500        127.5   0.88549245   0.73987188    10.620268    11.954148    22.574417    36.667728 
   25600          128   0.86717264  -0.68467647     7.199936    11.706831    18.906767    36.483611 
   25700        128.5   0.57809926  -0.66503357    6.6511733    7.8043401    14.455513    36.300311 
   25800          129   0.68453134   0.34865616    3.2931301    9.2411731    12.534303    36.118161 
   25900        129.5   0.65160218 -0.053932246     5.497221    8.7966294     14.29385    35.935837 
   26000          130   0.55772524  0.064804546    6.5145858    7.5292907    14.043877    35.754274 
   26100        130.5    0.4715422   0.34991281    4.7027144    6.3658198    11.068534    35.574681 
   26200          131   0.68246506    0.1136415    4.3926506    9.2132783    13.605929    35.397129 
   26300        131.5   0.37183453   0.82002714    7.6837469    5.0197661    12.703513    35.223302 
   26400          132   0.65363438 -0.060802159    5.2778472    8.8240642    14.101911    35.051606 
   26500        132.5   0.59817727  0.018265965    6.0238877    8.0753932    14.099281    34.882403 
   26600          133   0.47955997  -0.27097134    5.7682341    6.4740596    12.242294    34.715858 
   26700        133.5   0.57877721   0.82784243    4.4149297    7.8134923    12.228422    34.550814 
   26800          134   0.60037079  -0.47808276    2.7332789    8.1050057    10.838285    34.387328 
   26900        134.5   0.26946465   0.26375591    5.5763121    3.6377728    9.2140849    34.225592 
   27000          135    0.3453617 -0.034895649    4.1140333    4.6623829    8.7764162    34.065195 
   27100        135.5   0.45049306   0.18865706     6.216196    6.0816563    12.297852    33.906696 
   27200          136   0.59261522 -0.019625071    4.0930121    8.0003054    12.093318     33.74994 
   27300        136.5   0.48140553  -0.88637635    6.9291257    6.4989746      13.4281    33.595477 
   27400          137   0.54255081    1.3639934    7.5332272     7.324436    14.857663    33.442626 
   27500        137.5   0.89541488   0.32332429    4.6304183    12.088101    16.718519    33.293024 
   27600          138   0.54500865   0.68513655    6.6636153    7.3576167    14.021232    33.146121 
   27700        138.5   0.57444322   0.16849882    5.8207253    7.7549834    13.575709    33.002525 
   27800          139   0.69703237  0.051140302    3.9789074     9.409937    13.388844    32.862218 
   27900        139.5   0.42278017   0.67550665    6.8070358    5.7075323    12.514568    32.724445 
   28000          140   0.45832359  -0.53916821    10.605963    6.1873684    16.793331    32.589832 
   28100        140.5   0.59456763 -0.058230408    10.014525     8.026663    18.041188    32.457597 
   28200          141   0.64861152  -0.46063029    4.6409424    8.7562555    13.397198    32.327515 
   28300        141.5   0.59666751   0.87302847    5.4281765    8.0550114    13.483188    32.197988 
   28400          142   0.72469429    0.3816003    4.6510037    9.7833729    14.434377    32.069579 
   28500        142.5   0.47988564   0.43996063    6.3430763    6.4784562    12.821532    31.942687 
   28600          143   0.42215065  -0.55144486    4.4987403    5.6990338    10.197774    31.817484 
   28700        143.5   0.73947109   0.75157639    5.1023075    9.9828597    15.085167    31.692689 
   28800          144   0.42265938    0.3681885    6.4320061    5.7059016    12.137908    31.569191 
   28900        144.5   0.63768404   0.29829465    5.8012007    8.6087345    14.409935    31.446445 
   29000          145   0.61226984   0.36091181    5.8722406    8.2656429    14.137884    31.325639 
   29100        145.5   0.42178092   0.55920302     7.517283    5.6940424    13.211325     31.20559 
   29200          146   0.60246116   0.12614967    6.3963397    8.1332256    14.529565    31.085677 
   29300        146.5   0.49335032 -0.00037547861    7.5735474    6.6602293    14.233777    30.965877 
   29400          147   0.61189777  -0.76806918    4.1876947      8.26062    12.448315     30.84635 
   29500        147.5   0.37311017   0.50024138    7.1094848    5.0369873    12.146472    30.726844 
   29600          148   0.56961384   0.53958014     2.991909    7.6897868    10.681696     30.60936 
   29700        148.5   0.43240828   -0.2943262    4.4896062    5.8375118    10.327118    30.491791 
   29800          149     0.290659   -0.2338239     4.239365    3.9238965    8.1632615     30.37483 
   29900        149.5   0.39020742    1.1135333     5.224075    5.2678002    10.491875    30.258875 
   30000          150   0.29278759  -0.83984796    3.2157151    3.9526324    7.1683475    30.143322 
   30100        150.5   0.72886326   0.76856648    2.3061875     9.839654    12.145842    30.028378 
   30200          151   0.41250587   -0.5402396    6.6679798    5.5688292    12.236809    29.915115 
   30300        151.5   0.43075713   0.32850816     6.762653    5.8152213    12.577874    29.802353 
   30400          152   0.67050498  -0.20703242    4.1379904    9.0518172    13.189808    29.690629 
   30500        152.5   0.54607985 -0.082826361    4.1993766     7.372078    11.571455    29.579113 
   30600          153   0.62335498   0.77736525    3.2805468    8.4152922    11.695839    29.468434 
   30700        153.5   0.32199964   0.20376284    7.8699945    4.3469952     12.21699    29.359167 
   30800          154   0.59418767   0.17973175    5.9652373    8.0215336    13.986771    29.251174 
   30900        154.5   0.58791965   0.79553704    5.2887066    7.9369153    13.225622    29.144079 
   31000          155    0.4999563   -1.3614134    6.5733037    6.7494101    13.322714    29.037972 
   31100        155.5   0.45566858    1.9026671    12.365139    6.1515258    18.516665    28.932531 
   31200          156   0.46870311   -1.8171312    5.3910803     6.327492    11.718572    28.827604 
   31300        156.5   0.41170756   0.59939739    4.7138643     5.558052    10.271916    28.723078 
   31400          157   0.57784937   0.59130937    6.0894551    7.8009665    13.890422    28.620217 
   31500        157.5   0.76388493   0.23321488     3.920431    10.312447    14.232878    28.518097 
   31600          158   0.44486027   0.51623525    5.8429304    6.0056137    11.848544    28.415952 
   31700        158.5   0.58851776   0.23631997    6.7208173    7.9449898    14.665807    28.313138 
   31800          159    0.5945024   -1.2218986    7.2684778    8.0257823     15.29426    28.210273 
   31900        159.5    0.6050403   0.84576605    6.0659472    8.1680441    14.233991    28.107072 
   32000          160   0.36759203  -0.78142151    4.9044685    4.9624925     9.866961      28.0039 
   32100        160.5   0.32237117 -0.099788992    5.8951766    4.3520108    10.247187    27.900985 
   32200          161   0.55618764   0.33399356     4.817284    7.5085332    12.325817     27.79863 
   32300        161.5   0.53305048  0.074791383    4.8557672    7.1961814    12.051949    27.696332 
   32400          162   0.60180669   0.69031262    5.5215537    8.1243903    13.645944    27.595524 
   32500        162.5   0.67519786   0.93322155    3.1280241    9.1151711    12.243195    27.495516 
   32600          163   0.63816862   -1.7800735    6.3389814    8.6152764    14.954258    27.397203 
   32700        163.5   0.78728076    1.4041547    3.9833913     10.62829    14.611682    27.299539 
   32800          164   0.46572347   0.23927873    7.0318724    6.2872669    13.319139    27.202476 
   32900        164.5   0.81819486 -0.074313241    3.6697105    11.045631    14.715341    27.106188 
   33000          165   0.61431484   0.81898082    5.5639693    8.2932504     13.85722    27.011138 
   33100        165.5   0.65112746   0.42520753    6.1393484    8.7902207    14.929569    26.918372 
   33200          166   0.49092646   0.40277641    7.2162991    6.6275072    13.843806    26.827748 
   33300        166.5   0.55802456   -1.8637659    6.2237484    7.5333315     13.75708    26.738189 
   33400          167   0.60574507    1.0431286    8.3188076    8.1775584    16.496366    26.648694 
   33500        167.5   0.60206816  0.024064669    3.7588391    8.1279202    11.886759    26.559364 
   33600          168   0.47107149  -0.41877364    7.6814212    6.3594652    14.040886    26.471118 
   33700        168.5   0.76167761   0.53495605    4.0958461    10.282648    14.378494    26.382934 
   33800          169   0.42258568    0.7023079    7.2792979    5.7049066    12.984205    26.295459 
   33900        169.5   0.42053033   0.23081902    7.3503423    5.6771595    13.027502    26.208676 
   34000          170   0.41547716   -1.0446787    7.0928444    5.6089417    12.701786    26.121471 
   34100        170.5    0.5146906   0.91306561    3.3377365    6.9483231     10.28606    26.034254 
   34200          171   0.34732223   0.78637455     5.331569    4.6888501    10.020419    25.948095 
   34300        171.5   0.45796538  -0.50441814    4.4489149    6.1825326    10.631448    25.861947 
   34400          172   0.52130538    1.2156754    8.3807449    7.0376226    15.418368    25.776041 
   34500        172.5   0.34752264  -0.19434356    5.5046288    4.6915557    10.196185    25.692698 
   34600          173   0.48135563   0.93777237    9.3061179     6.498301    15.804419    25.608674 
   34700        173.5   0.47823552  -0.05152409    5.4541993    6.4561795    11.910379    25.525944 
   34800          174   0.60452434   0.99628464    6.5151653    8.1610786    14.676244    25.444196 
   34900        174.5   0.54444926   0.43493992    5.4993656     7.350065    12.849431    25.364138 
   35000          175   0.44421291   0.39015536    6.2182733    5.9968742    12.215148    25.285842 
   35100        175.5   0.59594086  -0.24922232    4.8599094    8.0452016    12.905111    25.208626 
   35200          176   0.69334964   0.46764329    6.7036854    9.3602201    16.063905    25.132001 
   35300        176.5   0.65250903  -0.36604466    6.3750157    8.8088719    15.183888    25.056669 
   35400          177   0.68341647  -0.55481314    10.041866    9.2261223    19.267988    24.981013 
   35500        177.5   0.79267535    1.2266612    9.6770804    10.701117    20.378198    24.906335 
   35600          178   0.66001647  -0.12762931    7.5706166    8.9102224    16.480839    24.833215 
   35700        178.5    1.1714775    1.3428901    5.2856477    15.814946    21.100594     24.76095 
   35800          179     0.552618  -0.52155195    6.7910566     7.460343      14.2514    24.688606 
   35900        179.5   0.81338572    1.1111873    5.4218949    10.980707    16.402602    24.616025 
   36000          180   0.87264833  -0.23894762    4.9583823    11.780752    16.739135    24.544518 
   36100        180.5   0.76833046  -0.47062402    6.3521462    10.372461    16.724607    24.473211 
   36200          181   0.63564376    1.4345014     6.131292    8.5811908    14.712483    24.402729 
   36300        181.5   0.93150189     1.188657    5.7895591    12.575276    18.364835    24.333354 
   36400          182   0.55376572   -1.0939722    7.2611901    7.4758372    14.737027    24.263983 
   36500        182.5   0.64152785    1.7034614    4.9200508    8.6606259    13.580677    24.194546 
   36600          183    0.4611356  -0.49865139    4.9109007    6.2253306    11.136231    24.126903 
   36700        183.5   0.55298716    0.6560823    6.0487367    7.4653267    13.514063    24.059978 
   36800          184   0.58323239    1.1689038    8.9807861    7.8736372    16.854423    23.993405 
   36900        184.5   0.59778365   -1.0428591    6.7691627    8.0700792    14.839242    23.927958 
   37000          185   0.51454491   0.62126347    6.6515716    6.9463563    13.597928    23.862726 
   37100        185.5   0.56745059  -0.11516068    5.8422908    7.6605829    13.502874    23.796365 
   37200          186   0.40174631   -1.7646518    5.3541502    5.4235752    10.777725    23.729026 
   37300        186.5    1.0090704   0.89510411    4.8362309     13.62245    18.458681    23.659774 
   37400          187   0.69017278    1.1413977     10.01028    9.3173326    19.327613    23.591273 
   37500        187.5   0.40292617   -1.5569377    7.4615861    5.4395032    12.901089    23.523177 
   37600          188   0.39562798    1.7995485    7.7959347    5.3409778    13.136912    23.455077 
   37700        188.5   0.66104848   -1.1494812    4.6818842    8.9241545    13.606039    23.387681 
   37800          189   0.82510726    0.2018216    6.0404744    11.138948    17.179422    23.319905 
   37900        189.5    0.6446954   0.36564939    7.7767619    8.7033879     16.48015    23.253271 
   38000          190    0.6914974  -0.13971646    6.8813954     9.335215     16.21661    23.185921 
   38100        190.5   0.38185421  -0.65341018     6.276774    5.1550318    11.431806     23.11659 
   38200          191   0.44751251    0.7959546    5.3975783    6.0414189    11.438997    23.047732 
   38300        191.5   0.43472943  -0.17319928    5.4562183    5.8688474    11.325066    22.979728 
   38400          192   0.51834367   0.57214238    5.5076602    6.9976396      12.5053    22.912888 
   38500        192.5   0.85633228   0.49666929    3.9036714    11.560486    15.464157    22.848488 
   38600          193   0.52878171   0.68084069    5.5902005    7.1385531    12.728754    22.784057 
   38700        193.5   0.32386611    0.2072535    3.6559546    4.3721926    8.0281472    22.719619 
   38800          194   0.47661172  -0.29332427    3.6392254    6.4342582    10.073484    22.655895 
   38900        194.5   0.45167357  -0.88918777    4.3760775    6.0975932    10.473671    22.592019 
   39000          195   0.44492401   0.75942781     5.611674    6.0064742    11.618148    22.528463 
   39100        195.5   0.51583256 -0.0066418832    3.6907711    6.9637395    10.654511    22.463915 
   39200          196   0.44638866  -0.57603834    4.5236403     6.026247    10.549887    22.398423 
   39300        196.5   0.39542627   0.43766244    5.3435966    5.3382547    10.681851    22.333092 
   39400          197   0.41081767    0.4730457    3.7271567    5.5460386    9.2731952    22.268848 
   39500        197.5   0.30404006  -0.09081213    3.8879677    4.1045408    7.9925085    22.203602 
   39600          198    0.5760394   -1.0983512    3.2072556    7.7765319    10.983787    22.138221 
   39700        198.5   0.48440343   0.41608646    3.5311451    6.5394463    10.070591     22.07294 
   39800          199   0.42687383   0.41831299     5.837737    5.7627967    11.600534    22.008417 
   39900        199.5   0.41024729  -0.70038309    6.3811171    5.5383384    11.919456    21.944206 
   40000          200   0.89256436 -0.093527547    6.2116962    12.049619    18.261315    21.880304 
   40100        200.5   0.75996588    0.4421343    5.7390781    10.259539    15.998617    21.816504 
   40200          201   0.84785274   0.73234836    5.7279827    11.446012    17.173995    21.753612 
   40300        201.5   0.70190178    1.8438039    6.6603236     9.475674    16.135998    21.691045 
   40400          202   0.68248744  -0.26478426    6.4897074    9.2135804    15.703288    21.629712 
   40500        202.5   0.58384631   0.51805303    6.3687297    7.8819252    14.250655    21.568636 
   40600          203   0.49099424   -1.2356621    5.2417675    6.6284223     11.87019    21.508015 
   40700        203.5   0.45983591    0.4198853    3.2330878    6.2077847    9.4408725    21.447322 
   40800          204   0.36563576   0.28332576    6.9610549    4.9360827    11.897138     21.38706 
   40900        204.5   0.56255138   0.32016367    4.5604306    7.5944437    12.154874       21.327 
   41000          205   0.59241755   0.51834148    4.2388715    7.9976369    12.236508    21.267046 
   41100        205.5   0.48280048   0.97585236    4.8667345    6.5178065    11.384541    21.207321 
   41200          206   0.60914477   0.82120518    5.1477643    8.2234543    13.371219    21.148518 
   41300        206.5   0.43619524  -0.62893201    5.0636193    5.8886357    10.952255    21.090148 
   41400          207   0.49822764    1.3125215    7.2046113    6.7260731    13.930684    21.031856 
   41500        207.5    0.7025208  -0.15313063    5.7356449    9.4840308    15.219676    20.973941 
   41600          208   0.78694025    1.8366456    5.6119533    10.623693    16.235647    20.916753 
   41700        208.5   0.59520542   -0.2275342    8.0122438    8.0352732    16.047517    20.861218 
   41800          209   0.85690448   -1.0017391     7.057819     11.56821    18.626029    20.806908 
   41900        209.5    0.4710108    1.5920074    8.7256696    6.3586457    15.084315    20.753592 
   42000          210      0.61391  0.023173596    4.7247674     8.287785    13.012552     20.70053 
   42100        210.5   0.68040116  -0.75437923    5.4715148    9.1854157    14.656931    20.647849 
   42200          211   0.61248833  -0.33309692    8.2982293    8.2685924    16.566822    20.595498 
   42300        211.5   0.67313071   0.41591854    4.5605971    9.0872645    13.647862    20.543153 
   42400          212   0.42039194   0.20757446    8.8924619    5.6752912    14.567753    20.491064 
   42500        212.5   0.71856798   -2.0621862    5.0682561    9.7006677    14.768924    20.439279 
   42600          213   0.51111809    2.9847249    5.9793508    6.9000942    12.879445    20.387207 
   42700        213.5    0.4106085  -0.68630587    6.2992712    5.5432148    11.842486    20.335507 
   42800          214   0.53316589   -1.0363128    4.0486082    7.1977395    11.246348    20.281394 
   42900        214.5   0.48383393   0.35275934    3.0344355     6.531758    9.5661935    20.226623 
   43000          215   0.31902477    1.2448216    4.0177159    4.3068344    8.3245503    20.172676 
   43100        215.5   0.38297391   -1.0947634    2.6884913    5.1701478    7.8586391    20.118143 
   43200          216   0.64586441   -1.1701836    3.9125761    8.7191695    12.631746    20.062994 
   43300        216.5   0.72677135     0.855318    4.1828561    9.8114132    13.994269    20.007864 
   43400          217   0.58047226   0.05813101    5.9612409    7.8363755    13.797616    19.953327 
   43500        217.5    0.5238799   -1.6105254    7.4758408    7.0723786    14.548219     19.89968 
   43600          218   0.62448812    1.0589957    4.7763207    8.4305896     13.20691    19.846699 
   43700        218.5   0.51787164    1.5210058    9.5909761    6.9912672    16.582243    19.793066 
   43800          219   0.60793567   -2.0375722    8.0127487    8.2071315     16.21988    19.739498 
   43900        219.5   0.71883299    1.4387409    5.2307354    9.7042454    14.934981    19.685683 
   44000          220   0.61219987  -0.13451405    5.6713532    8.2646982    13.936051    19.632264 
   44100        220.5   0.61248845   -1.0209277    7.2114852     8.268594    15.480079    19.579521 
   44200          221   0.54214675    1.2343542    5.2631868    7.3189812    12.582168    19.525484 
   44300        221.5   0.50466827   -1.1042569    5.0608821    6.8130217    11.873904     19.47175 
   44400          222   0.37990441    2.9230137    6.5366576    5.1287095    11.665367    19.418009 
   44500        222.5   0.44650856   -1.4363526    5.6958457    6.0278656    11.723711    19.364985 
   44600          223   0.62403419  0.094970513    4.6359776    8.4244615    13.060439    19.311521 
   44700        223.5   0.63037808 -0.033102829    7.1555619     8.510104    15.665666    19.258884 
   44800          224   0.66839563  -0.63801214    3.3223757    9.0233411    12.345717    19.206962 
   44900        224.5   0.53119376   0.60352999    8.1090345    7.1711158     15.28015    19.154756 
   45000          225   0.52330829   -1.5977327    6.3675283    7.0646619     13.43219    19.102465 
   45100        225.5   0.56721674   0.95408173     4.816562    7.6574259    12.473988     19.05033 
   45200          226   0.38894073   0.57876417    8.0582266    5.2506998    13.308926    18.998404 
   45300        226.5   0.66919711  -0.27223133    5.7729017     9.034161    14.807063    18.946548 
   45400          227   0.59671913   0.14587249    6.7217763    8.0557083    14.777485    18.894622 
   45500        227.5   0.55362785     1.952577    10.156772     7.473976    17.630748    18.843407 
   45600          228   0.69389719  -0.25072004    6.9867197     9.367612    16.354332    18.792939 
   45700        228.5   0.69600032  -0.36759035    5.7383259    9.3960043     15.13433    18.743073 
   45800          229   0.22592656  -0.39630528    6.2321788    3.0500086    9.2821874    18.693603 
   45900        229.5   0.37005334    1.4131777    5.6949637    4.9957201    10.690684    18.643897 
   46000          230   0.54414315 -0.036602091    5.0252502    7.3459325    12.371183    18.594237 
   46100        230.5   0.33682481    0.9804438    7.0440072     4.547135    11.591142    18.544591 
   46200          231   0.51622223    1.1208644    5.1217866    6.9690001    12.090787     18.49584 
   46300        231.5    0.5751081    -2.055012    6.7273867    7.7639593    14.491346    18.447642 
   46400          232   0.55624168   0.24068642    8.3772319    7.5092626    15.886495    18.399589 
   46500        232.5   0.57287344    1.3549749    4.2895236    7.7337914    12.023315    18.352434 
   46600          233   0.41386366  -0.41416964    5.1773459    5.5871595    10.764505    18.305825 
   46700        233.5   0.41275253 -0.023986205    5.2470072    5.5721591    10.819166    18.259926 
   46800          234   0.47314515   0.87400294    4.1324212    6.3874596    10.519881    18.214036 
   46900        234.5   0.49284755   -1.1667484    3.0871692    6.6534419    9.7406111    18.167645 
   47000          235   0.36894357    1.0628154    3.7195537    4.9807382    8.7002918    18.119847 
   47100        235.5   0.51433795 -0.037610942    3.3038648    6.9435624    10.247427    18.071478 
   47200          236   0.43708427   -1.9815874    4.9560179    5.9006377    10.856656    18.022686 
   47300        236.5   0.34593832   0.51379339    7.1429919    4.6701674    11.813159    17.973034 
   47400          237   0.37012571   0.71966951    5.6594737    4.9966972    10.656171    17.922755 
   47500        237.5   0.48623512 -0.023259088    4.3211448    6.5641742    10.885319     17.87328 
   47600          238   0.65672477   0.90779933    6.8021703    8.8657844    15.667955    17.824363 
   47700        238.5    0.4561457   -1.0092381    6.8806517     6.157967    13.038619    17.775696 
   47800          239   0.52396328 -0.027574702    4.0958922    7.0735043    11.169396    17.726788 
   47900        239.5   0.55038441   0.50400529    5.9549727    7.4301896    13.385162    17.677568 
   48000          240   0.55923124  -0.53148535    5.5679817    7.5496218    13.117603    17.629389 
   48100        240.5   0.58380421    1.0106637    5.9930971    7.8813568    13.874454    17.582125 
   48200          241   0.68692884  -0.42270709    3.6080153    9.2735393    12.881555    17.535917 
   48300        241.5   0.50081718   -1.3359097    6.1289368    6.7610319    12.889969    17.489714 
   48400          242   0.46596742    3.2992699    7.9933113    6.2905602    14.283871    17.443192 
   48500        242.5   0.61575958 -0.0046968654    8.5681707    8.3127544    16.880925    17.396892 
   48600          243   0.78846095   0.18324682    5.4340567    10.644223     16.07828    17.349881 
   48700        243.5   0.59198833  -0.18817779    6.7405913    7.9918425    14.732434    17.304811 
   48800          244   0.52604953   0.86236997    5.8985613    7.1016687     13.00023    17.260132 
   48900        244.5   0.60024958   0.96731851    6.1049212    8.1033693    14.208291    17.216765 
   49000          245    0.4694636   0.80074447    5.7843193    6.3377586    12.122078    17.174707 
   49100        245.5   0.63165586    1.1602649    5.7685092    8.5273541    14.295863    17.134285 
   49200          246   0.26782062    1.2781751    6.1727868    3.6155783    9.7883651    17.095411 
   49300        246.5   0.35794375    1.2884496    4.9264212    4.8322407    9.7586619     17.05738 
   49400          247   0.29763606   0.10702683    2.7930454    4.0180868    6.8111321    17.020525 
   49500        247.5   0.36884219    2.1353916    4.9306005    4.9793696    9.9099701    16.984286 
   49600          248   0.38908631    0.5806543     3.616511    5.2526651    8.8691761     16.94975 
   49700        248.5   0.61440247     0.160799    4.2865134    8.2944334    12.580947    16.915398 
   49800          249   0.72130743    1.9083885    8.9792386    9.7376503    18.716889    16.881817 
   49900        249.5   0.69162422   0.21385228     5.729593     9.336927     15.06652    16.850007 
   50000          250   0.67828585    1.2901093    7.1158113    9.1568589     16.27267    16.819198 
   50100        250.5    0.7484586    1.3975791    8.2470491    10.104191     18.35124    16.790071 
   50200          251   0.88543355    2.0482343    7.3155219    11.953353    19.268875    16.762278 
   50300        251.5   0.85318717    1.3416179    7.3227788    11.518027    18.840806    16.736452 
   50400          252   0.74337011  -0.79679115    6.9982167    10.035496    17.033713    16.712791 
   50500        252.5   0.71618978   0.58871587    5.5244717     9.668562    15.193034    16.689511 
   50600          253   0.54456639    1.2128517    6.8199637    7.3516463     14.17161    16.666223 
   50700        253.5   0.52517795   0.26673774     5.186257    7.0899024    12.276159    16.643655 
   50800          254   0.54383158   0.43843392    5.5302033    7.3417263     12.87193    16.621499 
   50900        254.5   0.52880477   0.92825644    4.1925891    7.1388643    11.331453    16.599575 
   51000          255   0.72390374    1.4491112    3.9387254    9.7727005    13.711426    16.577718 
   51100        255.5   0.39105767  -0.46227489    5.8685561    5.2792785    11.147835    16.556155 
   51200          256   0.62918646   0.46299352    6.3172811    8.4940172    14.811298    16.535031 
   51300        256.5   0.63536737    1.8917175    7.8809238    8.5774595    16.458383    16.514224 
   51400          257   0.47389824  -0.46403524    6.0716974    6.3976262    12.469324     16.49447 
   51500        257.5   0.32377611    1.6045933     6.471929    4.3709774    10.842906    16.473989 
   51600          258   0.33302229   0.12792063    6.6898127     4.495801    11.185614    16.452865 
   51700        258.5   0.35230951   -2.2468142    5.9575101    4.7561784    10.713689     16.43244 
   51800          259   0.60404728    2.2994853    5.0397383    8.1546382    13.194377    16.411634 
   51900        259.5   0.38378502    2.0374273    6.0405823    5.1810977     11.22168    16.391589 
   52000          260   0.57139084  -0.99623503    4.5303531    7.7137763    12.244129    16.371827 
   52100        260.5   0.40050475   0.60829274    7.0916481    5.4068142    12.498462    16.351334 
   52200          261   0.58384673   0.70948703    4.8294615    7.8819309    12.711392    16.330278 
   52300        261.5   0.41278645    1.6918596    6.4834088     5.572617    12.056026    16.308528 
   52400          262   0.76673095   -1.0486206    5.3508273    10.350868    15.701695    16.287332 
   52500        262.5   0.74913571   0.78368101    4.4497649    10.113332    14.563097    16.265822 
   52600          263   0.51437076    3.0387431    5.0554423    6.9440052    11.999447    16.244525 
   52700        263.5    0.4927449  -0.29379497    4.7216844    6.6520562    11.373741    16.223614 
   52800          264   0.54127152  -0.68530925    6.3691834    7.3071655    13.676349    16.202233 
   52900        264.5   0.50591262  0.081777412    7.5364537    6.8298203    14.366274    16.180062 
   53000          265   0.76233505   0.83251778    3.7101368    10.291523     14.00166    16.158998 
   53100        265.5   0.53914659    1.8913437    7.0479678     7.278479    14.326447    16.138337 
   53200          266   0.42308856    2.0219169    6.4217603    5.7116956    12.133456    16.118326 
   53300        266.5   0.56814847   0.69684646    5.1320895    7.6700044    12.802094    16.098867 
   53400          267   0.59875235   -1.1215692    4.9342955    8.0831567    13.017452     16.07967 
   53500        267.5   0.54185844    0.2336534    5.2182509    7.3150889     12.53334      16.0605 
   53600          268   0.61339794    2.5471938     6.296562    8.2808722    14.577434    16.041843 
   53700        268.5   0.66799222   -1.5415376    6.8219114    9.0178949    15.839806    16.024811 
   53800          269   0.87607307   -2.6355837    6.1022955    11.826986    17.929282    16.007055 
   53900        269.5   0.74578897    3.0822682    6.6547629    10.068151    16.722914    15.988614 
   54000          270   0.80980897     1.936161    5.6509101    10.932421    16.583331    15.970057 
   54100        270.5   0.59580992    -1.128414    8.7930647     8.043434    16.836499    15.952036 
   54200          271   0.70232506    1.3313602    10.113504    9.4813884    19.594892    15.933973 
   54300        271.5   0.55874532  0.092898774    11.951542    7.5430618    19.494604    15.916319 
   54400          272   0.59955589    1.1631072    5.6035359    8.0940045     13.69754    15.899194 
   54500        272.5   0.69968281  -0.68342916    7.7923296    9.4457179    17.238048    15.883025 
   54600          273   0.82884692    1.5115899    6.5175702    11.189433    17.707004    15.865896 
   54700        273.5   0.81337816   0.93550621    5.9013267    10.980605    16.881932    15.848401 
   54800          274   0.63012216    2.4422576    9.8953964    8.5066491    18.402046    15.831826 
   54900        274.5   0.54484558    1.1147351    9.3640702    7.3554153    16.719486    15.816905 
   55000          275   0.85045099   0.74963954    5.2797845    11.481088    16.760873    15.802748 
   55100        275.5   0.68975825    1.0656413    3.9506843    9.3117364    13.262421     15.78892 
   55200          276   0.48742698   -0.7386749    6.9066985    6.5802642    13.486963    15.776197 
   55300        276.5   0.50444847    2.0802042    5.4219827    6.8100543    12.232037    15.763634 
   55400          277   0.58265424  -0.79073702    10.877871    7.8658322    18.743704    15.751061 
   55500        277.5   0.64466915   0.33277047    7.5646565    8.7030335     16.26769    15.738342 
   55600          278   0.74504491  -0.21972123    6.1597857    10.058106    16.217892    15.726026 
   55700        278.5   0.73471411    1.7841892    5.9301216    9.9186405    15.848762    15.714577 
   55800          279   0.61074681   -1.7461497    7.1067424     8.245082    15.351824    15.704523 
   55900        279.5   0.64209119    2.5696854    6.5865617     8.668231    15.254793    15.694375 
   56000          280   0.54769802    2.0332757    7.7359127    7.3939232    15.129836    15.684312 
   56100        280.5   0.70517662  -0.33456525      3.84162    9.5198844    13.361504    15.674428 
   56200          281   0.42389946   0.47857318    4.5980762    5.7226427    10.320719     15.66477 
   56300        281.5   0.24301863   0.29803365    5.4259321    3.2807516    8.7066837    15.655101 
   56400          282   0.41768789  -0.44385904    6.5469608    5.6387865    12.185747    15.645453 
   56500        282.5   0.78490424    1.3763132    3.8376666    10.596207    14.433874    15.635535 
   56600          283   0.76354218   0.72659439    5.4299889    10.307819    15.737808    15.626096 
   56700        283.5   0.63935873    2.7501447     6.007114    8.6313429    14.638457    15.617964 
   56800          284   0.70227993    -1.420461    4.9508207    9.4807791      14.4316    15.610318 
   56900        284.5   0.45686116   -1.1971253    6.1395631    6.1676256    12.307189    15.602653 
   57000          285   0.62344687    0.4938347    8.8485302    8.4165327    17.265063    15.595243 
   57100        285.5    0.6936501    1.1709291    5.7573282    9.3642764    15.121605    15.587785 
   57200          286   0.62022165  -0.52018622    6.6067878    8.3729922     14.97978    15.580945 
   57300        286.5   0.48173348    2.3903571     11.55082     6.503402    18.054222    15.573337 
   57400          287   0.61416749   -1.4014353    8.1033791    8.2912611     16.39464    15.565647 
   57500        287.5   0.54223636    1.9686229    9.0618108    7.3201909    16.382002    15.557499 
   57600          288   0.54551793    3.8061919    8.3458005    7.3644921    15.710293    15.549715 
   57700        288.5   0.50552682   -3.0137409    6.7882921    6.8246121    13.612904    15.543168 
   57800          289   0.35906238   0.68496327    5.6678079    4.8473421     10.51515    15.536344 
   57900        289.5   0.52868419   0.98080953     4.749976    7.1372366    11.887213    15.529092 
   58000          290    0.7138651  -0.79726561    4.3778357    9.6371789    14.015015    15.521266 
   58100        290.5   0.44568579    2.2142286    6.5821812    6.0167582    12.598939    15.513278 
   58200          291    0.4069115 -0.054369035    5.5326111    5.4933053    11.025916    15.506178 
   58300        291.5   0.58554774    1.2286572    5.5669811    7.9048945    13.471876    15.498664 
   58400          292   0.56380963    1.6225912    7.7037484      7.61143    15.315178    15.491851 
   58500        292.5   0.42049156     1.131681    5.5606176     5.676636    11.237254     15.48586 
   58600          293   0.34378866   -1.9864971     5.963509    4.6411469    10.604656    15.480001 
   58700        293.5     0.282053   0.51426373    5.3005347    3.8077156    9.1082502    15.474272 
   58800          294   0.39971076    2.0104841    5.3357456    5.3960953    10.731841    15.467978 
   58900        294.5   0.53571192   -1.2874655     4.569343     7.232111    11.801454    15.461493 
   59000          295   0.47021854    1.5507793     3.388854    6.3479503    9.7368043    15.454419 
   59100        295.5   0.51986941    1.1737499    4.8942573     7.018237    11.912494    15.448035 
   59200          296   0.53412605    2.0254018    8.3371621    7.2107017    15.547864    15.443035 
   59300        296.5   0.54427865   0.74239153    5.4250748    7.3477618    12.772837    15.440432 
   59400          297   0.56632714    2.3246715    5.0780384    7.6454164    12.723455    15.438384 
   59500        297.5   0.59525187   0.33574907    5.8205107    8.0359002    13.856411    15.436322 
   59600          298    0.5047393    0.1757978    4.0153321    6.8139806    10.829313    15.434667 
   59700        298.5   0.73394538  -0.22347405    4.7192915    9.9082626    14.627554    15.434162 
   59800          299   0.58018557    1.0461292    4.3226437    7.8325052    12.155149    15.432769 
   59900        299.5    0.7209472    2.6156967    6.7360691    9.7327872    16.468856     15.43076 
   60000          300   0.62251289    2.7850239    6.4678364     8.403924     14.87176    15.430453 
   60100        300.5    0.5208177   -1.9147729     7.862627    7.0310389    14.893666    15.432222 
   60200          301   0.80679024  -0.12424873    5.6440965    10.891668    16.535765    15.433766 
   60300        301.5    0.5946135 -0.086933438    8.2733983    8.0272823    16.300681    15.435538 
   60400          302   0.69113859    2.2824025    6.1062571     9.330371    15.436628    15.436832 
   60500        302.5   0.48760843    -1.554403    7.0078011    6.5827138    13.590515    15.438858 
   60600          303   0.73105587   0.43964474    5.9005786    9.8692543    15.769833    15.439055 
   60700        303.5   0.52351296    1.8720033    11.773974    7.0674249    18.841399    15.439203 
   60800          304   0.68118947  -0.86290766    8.7003255    9.1960578    17.896383    15.439977 
   60900        304.5   0.58048932    0.7837591    8.1691578    7.8366058    16.005764    15.440914 
   61000          305   0.47944196  -0.98598109    8.6204354    6.4724665    15.092902    15.442666 
   61100        305.5    0.3895422   -1.2324051    6.4386007    5.2588197     11.69742    15.443704 
   61200          306   0.65942018     2.114547    4.0483293    8.9021725    12.950502    15.444115 
   61300        306.5   0.73206083   -0.6317402    6.3799589    9.8828212     16.26278    15.444344 
   61400          307   0.52081942    2.4976635    7.8359197    7.0310621    14.866982    15.444055 
   61500        307.5   0.58931599    1.5077805    6.0691082    7.9557658    14.024874    15.444446 
   61600          308   0.46002422   -1.8681598    11.289228    6.2103269    17.499555    15.444713 
   61700        308.5    1.0056997   0.49459376    5.0528706    13.576945    18.629816    15.444792 
   61800          309   0.65287868   -1.4306875    5.3312202    8.8138622    14.145082    15.444392 
   61900        309.5   0.83396919    2.7038233    5.7395721    11.258584    16.998156    15.444431 
   62000          310   0.65505264   -3.1738542    6.1349911    8.8432107    14.978202     15.44524 
   62100        310.5   0.65563988    2.2697413    5.8126846    8.8511384    14.663823    15.446135 
   62200          311   0.66804564    2.1331351    5.3813752    9.0186161    14.399991    15.447341 
   62300        311.5   0.44438105    1.4326971    8.0884489    5.9991441    14.087593    15.449021 
   62400          312   0.61535121  -0.95159556    5.8677117    8.3072413    14.174953    15.452133 
   62500        312.5   0.76800799   0.54666246    3.6243703    10.368108    13.992478    15.455616 
   62600          313   0.60473734    1.2320881    7.0217672    8.1639541    15.185721    15.459001 
   62700        313.5   0.55819732    1.4964846    4.9571111    7.5356639    12.492775    15.462961 
   62800          314    0.5211301 -0.059122042    3.7074524    7.0352564    10.742709    15.468128 
   62900        314.5    0.3884267   -1.1305656    4.9761311    5.2437605    10.219892    15.472815 
   63000          315   0.54611945    1.5736072    4.8630174    7.3726126     12.23563    15.476797 
   63100        315.5   0.70040776   0.51079045    4.4274448    9.4555048     13.88295    15.481506 
   63200          316   0.55785929  -0.38690458    5.1434583    7.5311004    12.674559    15.486697 
   63300        316.5    0.4456832    2.3802026    2.6243289    6.0167232    8.6410521     15.49066 
   63400          317   0.40881192   0.76587673    6.0635907    5.5189609    11.582552    15.495011 
   63500        317.5   0.29722984  -0.20646375    6.4203385    4.0126029    10.432941    15.498867 
   63600          318   0.56822125    1.1368826    3.9511886    7.6709869    11.622175    15.502104 
   63700        318.5   0.79132732   0.97951956    3.9497557    10.682919    14.632675    15.505491 
   63800          319   0.75846312   -1.5912916    6.4069458    10.239252    16.646198     15.50899 
   63900        319.5     0.736151      3.15749    6.7631461    9.9380385    16.701185    15.512226 
   64000          320   0.58672244   -1.9441006    8.1548072     7.920753     16.07556    15.515835 
   64100        320.5   0.52931247    3.3249508    10.025533    7.1457184    17.171251    15.519625 
   64200          321   0.83789758    1.0068105    6.0460054    11.311617    17.357623    15.524399 
   64300        321.5    1.1653396   -1.4063748    4.8729438    15.732085    20.605029    15.529729 
   64400          322   0.87728701    2.8702482    6.0736303    11.843375    17.917005    15.534731 
   64500        322.5   0.62835672    0.3072956    7.2245877    8.4828157    15.707403    15.540339 
   64600          323   0.68526914   -1.2732532    6.3906513    9.2511333    15.641785    15.545437 
   64700        323.5   0.54739924  0.082853176    9.2937309    7.3898897    16.683621    15.549794 
   64800          324   0.57710927    1.5284805    7.6823825    7.7909752    15.473358    15.553669 
   64900        324.5   0.64977307 -0.017176523    4.5753713    8.7719365    13.347308    15.557269 
   65000          325   0.33607968    1.1832794    10.756536    4.5370756    15.293612     15.56042 
   65100        325.5   0.53271899   0.37215611    6.7747514    7.1917063    13.966458    15.563542 
   65200          326   0.66121882    -1.230227    7.9355138    8.9264541    16.861968    15.566114 
   65300        326.5   0.59213278   0.93931381    7.4034898    7.9937925    15.397282    15.568254 
   65400          327   0.40840257   0.97900264    6.5814931    5.5134347    12.094928    15.570587 
   65500        327.5   0.50027539   0.89349026    7.7942854    6.7537177    14.548003     15.57316 
   65600          328   0.60953832   -0.7729031    7.1393954    8.2287673    15.368163    15.576464 
   65700        328.5   0.65736245    2.1975758     8.110253    8.8743931    16.984646    15.579195 
   65800          329   0.79445118   -2.8537335    8.7472742    10.725091    19.472365    15.581909 
   65900        329.5   0.67030741   0.41138347    7.5537812      9.04915    16.602931    15.584109 
   66000          330   0.59911486     2.237629    8.1212239    8.0880506    16.209274    15.585839 
   66100        330.5   0.53683655   -1.5561848     6.588347    7.2472934     13.83564    15.588614 
   66200          331   0.64506035   0.92186911    4.3290936    8.7083147    13.037408    15.591665 
   66300        331.5   0.63574784    1.0393573    6.0251785    8.5825958    14.607774    15.595213 
   66400          332   0.64515923  -0.73312761    5.7311987    8.7096496    14.440848    15.599275 
   66500        332.5    0.6586033     1.830338    4.3654181    8.8911445    13.256563    15.603548 
   66600          333   0.55197178    0.1666803    5.4331806     7.451619      12.8848    15.608423 
   66700        333.5   0.76940911  -0.13875961    3.9856022    10.387023    14.372625    15.613218 
   66800          334   0.54527424   0.67575761    6.3822881    7.3612022     13.74349    15.617581 
   66900        334.5   0.82776392    1.0825946    8.7950697    11.174813    19.969883    15.621768 
   67000          335   0.90049016    1.3687555    5.9573838    12.156617    18.114001    15.626091 
   67100        335.5    1.0663178  0.066449945    5.8173008    14.395291    20.212592    15.631433 
   67200          336   0.80257671    1.2919368    7.0116317    10.834786    17.846417    15.635969 
   67300        336.5   0.38673127  -0.56162522    7.8296968    5.2208722    13.050569    15.640413 
   67400          337   0.54500892  -0.13227697    7.3536097    7.3576204     14.71123    15.644299 
   67500        337.5   0.50463256    1.6096553     4.963595    6.8125396    11.776135    15.648055 
   67600          338   0.50524371   0.30850668    5.5729958      6.82079    12.393786    15.652281 
   67700        338.5   0.50723884   -0.5512957    5.9450282    6.8477244    12.792753    15.655086 
   67800          339   0.56684679   -1.0412605    7.0989623    7.6524316    14.751394    15.657249 
   67900        339.5   0.40338703    1.7080441    4.5388537    5.4457249    9.9845786    15.659729 
   68000          340   0.58036715   0.62820654    5.8467378    7.8349566    13.681694    15.661544 
   68100        340.5   0.42341154  -0.98295136    8.5069194    5.7160558    14.222975    15.663022 
   68200          341   0.38244053     1.731494    7.2593862    5.1629472    12.422333    15.664283 
   68300        341.5   0.59304746   0.92095294    4.8021852    8.0061407    12.808326    15.665741 
   68400          342   0.75699326  -0.69338793    6.3372809    10.219409     16.55669    15.667089 
   68500        342.5   0.58090881    1.8868652    5.9995375    7.8422689    13.841806     15.66814 
   68600          343   0.71441648   0.26438368    6.1867189    9.6446225    15.831341    15.668927 
   68700        343.5   0.50763652    0.6471904    5.8140182     6.853093    12.667111    15.668723 
   68800          344   0.51332792   0.19401651    6.9415095     6.929927    13.871437    15.668857 
   68900        344.5   0.23103319    2.8189275    5.9002018     3.118948    9.0191498    15.669183 
   69000          345   0.44857787   0.29048717      7.71651    6.0558012    13.772311    15.669872 
   69100        345.5   0.40582407   -1.9177024    5.4498318    5.4786249    10.928457    15.670306 
   69200          346    0.4196244   0.88107301    3.3480105    5.6649294      9.01294     15.66952 
   69300        346.5    0.3696575  -0.11750506    5.1563425    4.9903763    10.146719     15.66798 
   69400          347   0.47972377   -1.6410223    3.3931654    6.4762708    9.8694362    15.665631 
   69500        347.5   0.53224838    1.1628428    6.7860478    7.1853532    13.971401    15.662482 
   69600          348   0.66453568   0.57215159     4.321384    8.9712317    13.292616    15.659391 
   69700        348.5   0.56208504   0.50615145    6.3292632    7.5881481    13.917411    15.656244 
   69800          349   0.60311279   0.32685003    6.3956604    8.1420227    14.537683    15.652977 
   69900        349.5   0.85783316   0.10157809    4.5828167    11.580748    16.163564    15.650342 
   70000          350   0.57917747   0.96513242     8.298119    7.8188958    16.117015    15.648267 
   70100        350.5   0.85580998   0.54852569    5.1146208    11.553435    16.668056    15.646394 
   70200          351   0.51207269   0.73296382    6.0127488    6.9129813     12.92573    15.644281 
   70300        351.5   0.48612594     1.020058    4.5463518    6.5627002    11.109052    15.642057 
   70400          352   0.58132616  -0.48296178    4.2936803    7.8479031    12.141583    15.639767 
   70500        352.5   0.40434395  -0.10888669    5.8844332    5.4586433    11.343076    15.637466 
   70600          353   0.43141532   -1.0297853    5.6335802    5.8241068    11.457687    15.635034 
   70700        353.5   0.26778341  -0.94725036    4.8771199     3.615076     8.492196    15.632626 
   70800          354   0.50966152    2.3344678    4.8039555    6.8804305    11.684386    15.629804 
   70900        354.5   0.50505324  -0.75266575    6.0872706    6.8182187    12.905489    15.627206 
   71000          355   0.47076931    2.1406471    4.5369059    6.3553857    10.892292    15.624535 
   71100        355.5   0.52922986  -0.14377544    4.0885286    7.1446031    11.233132    15.622246 
   71200          356   0.35653297   0.93428492    9.7616614    4.8131951    14.574856    15.619889 
   71300        356.5   0.62756525   0.78028561     5.090378    8.4721309    13.562509    15.617414 
   71400          357   0.47270911   0.26032219    5.0155206     6.381573    11.397094     15.61533 
   71500        357.5   0.57817611    0.8738234    4.5488366    7.8053775    12.354214    15.613476 
   71600          358   0.41643112    2.5655794    4.9049281    5.6218201    10.526748     15.61278 
   71700        358.5   0.46499267   0.34637695    5.5602205    6.2774011    11.837622    15.612855 
   71800          359   0.66420835   0.17836004     4.398319    8.9668127    13.365132    15.612265 
   71900        359.5   0.39306285   -2.0216179    5.4090815    5.3063485     10.71543    15.612523 
   72000          360   0.56455887 -0.098914772    3.3691591    7.6215447    10.990704     15.61071 
   72100        360.5   0.45385103   -2.0425723    6.8546945    6.1269889    12.981683    15.607972 
   72200          361   0.45290963    2.0845854    8.1725893      6.11428    14.286869    15.605144 
   72300        361.5    0.4826557 -0.027840131    3.5225988     6.515852    10.038451    15.602922 
   72400          362   0.36438613    1.0430012     7.804142    4.9192128    12.723355    15.600238 
   72500        362.5   0.60179642  -0.34717646    4.5995114    8.1242517    12.723763     15.59824 
   72600          363   0.44276965    2.1613499    3.6830879    5.9773903    9.6604782    15.595355 
   72700        363.5   0.53297841  -0.97152493    5.0956175    7.1952085    12.290826    15.592553 
   72800          364   0.47932777   0.47788897    6.8600368     6.470925    13.330962    15.588995 
   72900        364.5   0.61245864    3.6905932    8.2363955    8.2681916    16.504587    15.585449 
   73000          365   0.84550333   -0.9695506    5.1400097    11.414295    16.554305    15.581862 
   73100        365.5   0.54333532 0.0021917182     9.445155    7.3350269    16.780182    15.577859 
   73200          366   0.51240004    1.2118444     5.227105    6.9174005    12.144505    15.573011 
   73300        366.5   0.60390962   -1.3365407    5.3072514    8.1527799    13.460031    15.567951 
   73400          367    0.4038184    1.2893368    4.6833031    5.4515485    10.134852    15.562394 
   73500        367.5   0.58107045    2.4616279    4.0799344    7.8444511    11.924385     15.55695 
   73600          368   0.27283342  0.074865533    7.3183366    3.6832512    11.001588    15.552201 
   73700        368.5    0.5822299   0.54330386    5.0637892    7.8601036    12.923893    15.546875 
   73800          369   0.44034799   0.10312883    5.8030532    5.9446978    11.747751    15.540853 
   73900        369.5   0.55163903  -0.35221617    5.1229707    7.4471269    12.570098    15.534856 
   74000          370   0.44283929  -0.58819789    6.7269321    5.9783304    12.705263     15.52917 
   74100        370.5   0.64463648    2.1243331    3.9628963    8.7025925    12.665489    15.523363 
   74200          371   0.57406715  -0.16076595    5.5052605    7.7499065    13.255167     15.51759 
   74300        371.5   0.45126071   0.48737214    6.2394463    6.0920195    12.331466     15.51138 
   74400          372    0.4180644    1.3065332    5.0532596    5.6438694    10.697129    15.505181 
   74500        372.5   0.50734714   -1.1596505    6.0246918    6.8491863    12.873878    15.499118 
   74600          373   0.46540958     2.077049    5.4283872    6.2830293    11.711417    15.492949 
   74700        373.5   0.52191731   -1.0432603    4.4262551    7.0458837    11.472139    15.487069 
   74800          374   0.46633014   -1.3046399    3.9932859    6.2954569    10.288743     15.48151 
   74900        374.5   0.39313613    2.6127776    4.8485714    5.3073378    10.155909    15.476306 
   75000          375   0.81250361  -0.32653115    3.9643171    10.968799    14.933116    15.471858 
   75100        375.5   0.72199489   0.93559462    5.2334855     9.746931    14.980416    15.468029 
   75200          376   0.51411243 -0.038767017     9.497061    6.9405178    16.437579    15.464398 
   75300        376.5   0.73200355   0.70213918    9.2858565     9.882048    19.167904    15.460258 
   75400          377   0.62109924   0.52986357     12.16426    8.3848398    20.549099     15.45593 
   75500        377.5   0.74254943  -0.61141652    7.1446414    10.024417    17.169059    15.449961 
   75600          378   0.84657332    1.1667308    8.5282313     11.42874    19.956971    15.444468 
   75700        378.5    1.0383845   0.86086376     9.754814    14.018191    23.773005    15.440243 
   75800          379   0.76629816   -1.0771027    10.335102    10.345025    20.680127    15.435888 
   75900        379.5   0.82613265   -1.1388657    7.6474523    11.152791    18.800243    15.431929 
[...]
  182200          911    0.5323765   -0.2476168     8.715942    7.1870828    15.903025    21.492324 
  182300        911.5   0.78941696   0.94734481    5.6002756    10.657129    16.257405    21.492564 
  182400          912   0.58730498    1.3672842    8.2029357    7.9286172    16.131553     21.49386 
  182500        912.5   0.52121626   -2.0531079    8.3444071    7.0364195    15.380827    21.493046 
  182600          913   0.42792389     1.343658    6.2628612    5.7769725    12.039834    21.490709 
  182700        913.5   0.47056793   0.76955315    7.2909296     6.352667    13.643597    21.487277 
  182800          914   0.45946707 0.0067251197    6.6449395    6.2028055    12.847745    21.482764 
  182900        914.5   0.79046839   0.42793267    9.4327165    10.671323     20.10404    21.477408 
  183000          915   0.88265973  -0.14151182    5.1094356    11.915906    17.025342    21.470797 
  183100        915.5   0.82412295   0.28924495    5.0807398     11.12566      16.2064    21.463302 
  183200          916   0.34110503   0.81117537    4.5760192    4.6049179    9.1809371    21.454705 
  183300        916.5   0.57889751  -0.41474868    4.0751748    7.8151164    11.890291    21.445523 
  183400          917   0.59699268   0.33285141    4.8463673    8.0594012    12.905769    21.435295 
  183500        917.5   0.53043201   0.63067595    5.8040637    7.1608321    12.964896    21.424433 
  183600          918   0.64185053   -1.0027645    4.4084077    8.6649822     13.07339    21.412322 
  183700        918.5   0.58022932  -0.10246925    6.5502681    7.8330958    14.383364    21.398289 
  183800          919   0.50798351   0.69013523    7.2501292    6.8577773    14.107907    21.381695 
  183900        919.5   0.42599936   0.57022395      8.48875    5.7509913    14.239741    21.363938 
  184000          920   0.69720529   0.21167238    5.3434213    9.4122714    14.755693    21.345736 
  184100        920.5   0.49048904   0.22129635    5.8141395    6.6216021    12.435742    21.326798 
  184200          921   0.46582905   -1.2457046    6.5903825    6.2886922    12.879075    21.306634 
  184300        921.5   0.60630813    1.1042994    7.4853319    8.1851597    15.670492    21.284851 
  184400          922   0.52776617  -0.91508479    5.6976026    7.1248434    12.822446    21.262404 
  184500        922.5    0.4762125  0.057410766    5.2100676    6.4288687    11.638936    21.238716 
  184600          923    0.5120757  -0.71952811     4.418706     6.913022    11.331728    21.213916 
  184700        923.5   0.83324036    1.6984124    6.4503763    11.248745    17.699121    21.188586 
  184800          924   0.86980961  -0.44796359    3.6821059     11.74243    15.424536    21.162616 
  184900        924.5   0.50999394  0.040300075    5.2642993    6.8849182    12.149218    21.135143 
  185000          925   0.39851621   0.11679538    5.0049653    5.3799688    10.384934     21.10661 
  185100        925.5    0.2972878  -0.96187732    5.1306374    4.0133853    9.1440226    21.077113 
  185200          926   0.32356033   0.60829333    5.5650777    4.3680645    9.9331422    21.046605 
  185300        926.5   0.30867269  -0.38600344    3.2550773    4.1670814    7.4221587    21.014791 
  185400          927   0.43794837   -1.0866915    5.8144098     5.912303    11.726713    20.981481 
  185500        927.5   0.59124003  -0.49525687    4.3673004    7.9817405    12.349041    20.946799 
  185600          928   0.54272495    1.1298306    4.5902675    7.3267869    11.917054    20.911016 
  185700        928.5   0.55722833  -0.73141738    6.0836169    7.5225825    13.606199    20.873977 
  185800          929    0.4310323    2.1547316    5.7013262     5.818936    11.520262    20.836093 
  185900        929.5   0.26692902   0.53192984    6.2022071    3.6035418    9.8057489    20.798593 
  186000          930   0.40473892  -0.14397712     6.615574    5.4639754    12.079549    20.760141 
  186100        930.5   0.39611701    1.5363399    5.9432226    5.3475797    11.290802    20.720815 
  186200          931   0.56501515   -1.2336325     5.970793    7.6277045    13.598497    20.680772 
  186300        931.5   0.51990712   0.56582246    8.6696697    7.0187462    15.688416    20.640814 
  186400          932    0.4162586   0.95650014    6.2286379    5.6194911    11.848129     20.60151 
  186500        932.5   0.66139031    -1.404063    5.9216987    8.9287692    14.850468    20.561264 
  186600          933   0.59467656    1.0810354    5.3135717    8.0281335    13.341705    20.519748 
  186700        933.5   0.59630414   0.21558411     5.112794    8.0501058      13.1629    20.477553 
  186800          934   0.73530796     1.086457    6.4858084    9.9266575    16.412466    20.434689 
  186900        934.5   0.51467254  -0.68238794    6.5398249    6.9480793    13.487904    20.393327 
  187000          935   0.27722378  -0.79364485    6.6673928    3.7425211    10.409914    20.352499 
  187100        935.5   0.59602024   0.39846577    4.1202193    8.0462732    12.166493    20.311698 
  187200          936   0.48956318   0.83513174    4.1042708    6.6091029    10.713374      20.2705 
  187300        936.5   0.44063885  -0.79009746    5.4666766    5.9486245    11.415301    20.228619 
  187400          937   0.49190729   0.81519188    5.1561711    6.6407485     11.79692    20.185307 
  187500        937.5    0.4456849  -0.56915595    4.5801877    6.0167462    10.596934    20.141071 
  187600          938   0.37183292   0.21970899     3.985331    5.0197445    9.0050755    20.096281 
  187700        938.5   0.45955927  -0.37818622    3.0419211    6.2040502    9.2459713    20.050903 
  187800          939    0.3944168 -0.034096567    2.0971202    5.3246268     7.421747    20.004895 
  187900        939.5   0.37503532   -1.0616222    4.0727815    5.0629769    9.1357584    19.957671 
  188000          940   0.57574164  -0.57604179    5.9408785    7.7725121    13.713391    19.909034 
  188100        940.5   0.44999749  -0.56307448    7.6355614    6.0749661    13.710528    19.859573 
  188200          941    0.4488106   0.90944785    5.8451387    6.0589431    11.904082    19.809553 
  188300        941.5   0.47571803   -1.4437299    8.3567757    6.4221934    14.778969     19.75947 
  188400          942   0.44014555   0.74129801    6.2781017     5.941965    12.220067    19.708656 
  188500        942.5   0.61872627   0.11449196    5.2501916    8.3528047    13.602996     19.65706 
  188600          943   0.55016464  -0.98307519    6.6234466    7.4272226    14.050669    19.604816 
  188700        943.5   0.65148523    2.2901406    4.6554509    8.7950506    13.450501    19.552293 
  188800          944   0.34883815    1.1158521    7.2010361     4.709315    11.910351    19.499783 
  188900        944.5   0.53301257 -0.059107218    3.1082263    7.1956696    10.303896    19.446725 
  189000          945   0.55624687   0.30954943    5.7248848    7.5093328    13.234218    19.393694 
  189100        945.5   0.50494226   0.95749459    5.3687449    6.8167205    12.185465    19.340636 
  189200          946   0.69581635   0.57568054    3.9917726    9.3935207    13.385293     19.28652 
  189300        946.5   0.47471893    0.1291724    4.1891135    6.4087055    10.597819    19.232144 
  189400          947    0.4922426    2.4537757    5.9675489    6.6452751    12.612824    19.176732 
  189500        947.5   0.68043578  -0.45530246    4.2866675     9.185883    13.472551    19.121475 
  189600          948   0.28743684    1.8338028    9.8706863    3.8803974    13.751084    19.065565 
  189700        948.5   0.57713336   0.98190131    4.9591411    7.7913003    12.750441    19.009789 
  189800          949   0.48220982  -0.87955767    5.0206224    6.5098325    11.530455    18.953186 
  189900        949.5   0.46645709   0.58111899    4.0624508    6.2971707    10.359622     18.89565 
  190000          950   0.34747784   0.59777736    6.1766049    4.6909509    10.867556    18.837639 
  190100        950.5   0.53076092   0.70237073    4.3802287    7.1652725    11.545501    18.779966 
  190200          951   0.43298168  -0.51926714    7.8040825    5.8452527    13.649335    18.722221 
  190300        951.5   0.58672581  -0.93969302     5.293452    7.9207985     13.21425    18.663587 
  190400          952   0.58023379    1.3948406    5.5233762    7.8331562    13.356532    18.604286 
  190500        952.5   0.52616511  -0.80511549    6.1828339     7.103229    13.286063     18.54487 
  190600          953   0.49773345   0.13582289    5.7275234    6.7194016    12.446925    18.484675 
  190700        953.5    0.4860177     1.787024    4.9006329     6.561239    11.461872    18.423611 
  190800          954    0.5060961  -0.69153449    3.4992502    6.8322973    10.331547    18.363167 
  190900        954.5    0.5320991   0.91062431    4.7504365    7.1833378    11.933774    18.302882 
  191000          955   0.37778047  -0.93148386    5.4138153    5.1000363    10.513852    18.242311 
  191100        955.5   0.51654565   0.86598029    6.3074551    6.9733662    13.280821     18.18088 
  191200          956   0.68337599   0.74579756    4.7639792    9.2255759    13.989555    18.119217 
  191300        956.5   0.52490107   0.79189327    5.3129248    7.0861644    12.399089    18.057675 
  191400          957   0.70997399   -1.5732103    7.8673342    9.5846488    17.451983    17.995541 
  191500        957.5   0.80220433  -0.42346531    8.1069844    10.829758    18.936743    17.932857 
  191600          958   0.65409182    2.9759214    9.4770135    8.8302395    18.307253    17.869821 
  191700        958.5    0.7944294   0.28477729    8.8563102    10.724797    19.581107    17.807981 
  191800          959   0.66729863   0.88426393    9.0523604    9.0085315    18.060892    17.748207 
  191900        959.5   0.65551444  -0.21164096    7.8484078     8.849445    16.697853    17.690092 
  192000          960   0.69710086   -1.0577188    5.4114042    9.4108617    14.822266    17.632479 
  192100        960.5   0.71627381  0.059653895    5.4825915    9.6696964    15.152288    17.574786 
  192200          961   0.74807485   0.55318702    4.4371625     10.09901    14.536173    17.516878 
  192300        961.5   0.54422299    1.0552018    3.8886971    7.3470104    11.235708    17.458646 
  192400          962   0.33815274  -0.57699322    4.4207015     4.565062    8.9857634    17.400495 
  192500        962.5   0.36524006    1.2557981    7.1957413    4.9307408    12.126482    17.341759 
  192600          963   0.46972003   -1.2654713    7.3329368    6.3412204    13.674157    17.282769 
  192700        963.5   0.69444364   0.24649266     6.716863    9.3749891    16.091852     17.22332 
  192800          964   0.60867769   0.28987902    4.9310634    8.2171488    13.148212    17.163413 
  192900        964.5   0.43519518  0.052602272    5.2354631    5.8751349    11.110598    17.103708 
  193000          965   0.34504804    2.2409465    6.9167208    4.6581486    11.574869    17.043673 
  193100        965.5   0.58370953   -1.5291979    4.4652717    7.8800787     12.34535    16.984027 
  193200          966   0.53879292 -0.018660897    4.5025256    7.2737044     11.77623    16.923991 
  193300        966.5   0.52901173    1.0267647    5.2662008    7.1416584    12.407859    16.864033 
  193400          967   0.47741604    2.4217281    9.3430179    6.4451165    15.788134    16.805476 
  193500        967.5    0.4076109   0.29280635    7.3103305    5.5027471    12.813078    16.748755 
  193600          968   0.53185143  -0.11258588    9.1264238    7.1799943    16.306418     16.69398 
  193700        968.5   0.65886879   0.52852954    4.7275676    8.8947286    13.622296    16.641261 
  193800          969   0.61984582    2.3266303    4.5511842    8.3679186    12.919103    16.589686 
  193900        969.5   0.67341039    1.3082035    6.4129847    9.0910403    15.504025    16.539231 
  194000          970   0.61175853   -0.0269744    5.7036527    8.2587402    13.962393    16.488777 
  194100        970.5   0.77442873   0.50169736     7.133574    10.454788    17.588362    16.438215 
  194200          971    0.5169967   -1.6300467    7.4848389    6.9794554    14.464294    16.387324 
  194300        971.5   0.61665581   -1.8242163    6.1140738    8.3248534    14.438927    16.336541 
  194400          972   0.57321871    2.2588015    9.8967276    7.7384526     17.63518    16.286039 
  194500        972.5   0.72127899    3.3675578    8.4389641    9.7372663     18.17623    16.236906 
  194600          973   0.61317581   -1.7303253    6.6715379    8.2778734    14.949411     16.18898 
  194700        973.5   0.60581913   -1.5921749    4.9154467    8.1785582    13.094005    16.140968 
  194800          974   0.52842888    1.4974175    10.690282    7.1337899    17.824072    16.093188 
  194900        974.5   0.53842751    1.1949145    8.9663484    7.2687714     16.23512    16.047709 
  195000          975    0.6114502  -0.29555437    6.9734199    8.2545778    15.227998    16.002629 
  195100        975.5   0.96431541  -0.92273902    7.1439189    13.018258    20.162177    15.957447 
  195200          976   0.56990932   0.25845758    8.5528828    7.6937758    16.246659    15.912391 
  195300        976.5    0.4829719   -2.2302862    6.5340638    6.5201207    13.054184    15.867395 
  195400          977   0.47894216   0.18496435    5.1865098    6.4657192    11.652229    15.821921 
  195500        977.5   0.37975993   -1.5375668    6.9064753     5.126759    12.033234    15.776255 
  195600          978    0.4123943    1.2508212    7.2840902     5.567323    12.851413    15.730842 
  195700        978.5   0.27346113  -0.77104216    8.8274649    3.6917253     12.51919    15.685834 
  195800          979   0.37941055    1.0203802    5.5522593    5.1220425    10.674302    15.640907 
  195900        979.5   0.58241946  -0.16792437    3.3202227    7.8626628    11.182886    15.595974 
  196000          980   0.40910367    2.2719934     6.590057    5.5228995    12.112956    15.551008 
  196100        980.5   0.64540484  -0.40832219    6.2676727    8.7129653    14.980638    15.506648 
  196200          981   0.90687642    2.5164603    4.6555943    12.242832    16.898426    15.463627 
  196300        981.5   0.58357475  -0.26416174    7.9590245    7.8782591    15.837284    15.421987 
  196400          982   0.65491607  -0.33176868    5.4337634     8.841367     14.27513    15.381283 
  196500        982.5   0.46544232    2.4942263    6.4093612    6.2834713    12.692832    15.340593 
  196600          983   0.34761205    1.6562046    6.8931742    4.6927627    11.585937    15.300624 
  196700        983.5   0.35095564   0.54859622    9.3849786    4.7379011     14.12288    15.260479 
  196800          984   0.83977631   0.31716425    5.7797106     11.33698    17.116691    15.220125 
  196900        984.5    0.6588115   -1.0457372      7.77468    8.8939553    16.668635     15.17953 
  197000          985   0.83104938   0.91366269    4.6738594    11.219167    15.893026    15.139162 
  197100        985.5   0.64900297   -1.0834199    6.3948225    8.7615401    15.156363    15.098873 
  197200          986   0.73286576     1.782487    6.5661309    9.8936878    16.459819    15.058354 
  197300        986.5   0.47163705    1.1368353    4.6117262    6.3671001    10.978826    15.017675 
  197400          987   0.73779289  -0.58648764    4.8313329     9.960204    14.791537    14.976807 
  197500        987.5   0.38351112    2.1900245    9.8654145    5.1774001    15.042815    14.935514 
  197600          988   0.56088558   -1.0184606    5.1211487    7.5719553    12.693104    14.894772 
  197700        988.5   0.67392941    1.1149902    5.2624086     9.098047    14.360456     14.85435 
  197800          989   0.62480796  0.092766659    3.3918031    8.4349075    11.826711    14.813985 
  197900        989.5   0.60875588  0.080830813    5.8431024    8.2182044    14.061307     14.77384 
  198000          990   0.78651876   0.65993445    5.8877992    10.618003    16.505802    14.734097 
  198100        990.5   0.45116397    2.6421166    7.9550656    6.0907136    14.045779    14.695116 
  198200          991   0.68264225   0.88668122    7.1047781    9.2156703    16.320448     14.65813 
  198300        991.5   0.68031743   0.69514498    6.8401236    9.1842853    16.024409    14.622222 
  198400          992   0.64728183  -0.94494884     6.582162    8.7383047    15.320467    14.586793 
  198500        992.5   0.84391843    2.9470074    6.8002363    11.392899    18.193135    14.551097 
  198600          993   0.53103298   -2.4260078    9.3623552    7.1689452      16.5313    14.515837 
  198700        993.5   0.56597374  -0.75518102    8.0771914    7.6406454    15.717837    14.481315 
  198800          994   0.52987456    2.6526547    7.0550205    7.1533066    14.208327    14.447316 
  198900        994.5   0.66546028   0.38524439     9.058877    8.9837137    18.042591     14.41431 
  199000          995   0.55703996  -0.56961711    9.3373255    7.5200395    16.857365    14.382079 
  199100        995.5    0.7655914     3.627469    7.3613437    10.335484    17.696828    14.350385 
  199200          996   0.66706483  -0.98097443    6.2070474    9.0053752    15.212423     14.32001 
  199300        996.5   0.65578064    3.0389424    5.7481755    8.8530387    14.601214    14.290251 
  199400          997   0.46103551   -1.9022242    6.8287118    6.2239794    13.052691    14.261443 
  199500        997.5    0.5347926    3.4584664    5.9420015    7.2197001    13.161702    14.233242 
  199600          998   0.63451173    0.2725296    5.7333419    8.5659083     14.29925    14.205836 
  199700        998.5   0.58366377    2.5223567     4.909706    7.8794609    12.789167    14.178443 
  199800          999   0.64753234  -0.30620614    5.6699352    8.7416865    14.411622    14.151918 
  199900        999.5   0.72536385    1.7087102    9.3074581     9.792412     19.09987    14.125754 
  200000         1000    0.5237316    3.1442169    6.6427981    7.0703767    13.713175    14.100879 
WARNING: Bond/angle/dihedral extent > half of periodic box length (../domain.cpp:906)
Loop time of 32.6798 on 1 procs for 200000 steps with 10 atoms

Performance: 2643833.252 tau/day, 6119.984 timesteps/s
46.2% CPU use with 1 MPI tasks x 1 OpenMP threads

MPI task timing breakdown:
Section |  min time  |  avg time  |  max time  |%varavg| %total
---------------------------------------------------------------
Pair    | 0.341      | 0.341      | 0.341      |   0.0 |  1.04
Bond    | 0.39906    | 0.39906    | 0.39906    |   0.0 |  1.22
Neigh   | 0.12086    | 0.12086    | 0.12086    |   0.0 |  0.37
Comm    | 0.55767    | 0.55767    | 0.55767    |   0.0 |  1.71
Output  | 11.566     | 11.566     | 11.566     |   0.0 | 35.39
Modify  | 19.427     | 19.427     | 19.427     |   0.0 | 59.45
Other   |            | 0.2682     |            |       |  0.82

Nlocal:    10 ave 10 max 10 min
Histogram: 1 0 0 0 0 0 0 0 0 0
Nghost:    194 ave 194 max 194 min
Histogram: 1 0 0 0 0 0 0 0 0 0
Neighs:    36 ave 36 max 36 min
Histogram: 1 0 0 0 0 0 0 0 0 0

Total # of neighbors = 36
Ave neighs/atom = 3.6
Ave special neighs/atom = 4.8
Neighbor list builds = 4079
Dangerous builds = 0

# SHELL
shell copy output.dump        output_T_${T}_N_${N}_box_${box}_run_${run_tau}_tau_num_${num}.dump
shell copy output.dump        output_T_0.5_N_${N}_box_${box}_run_${run_tau}_tau_num_${num}.dump
shell copy output.dump        output_T_0.5_N_100_box_${box}_run_${run_tau}_tau_num_${num}.dump
shell copy output.dump        output_T_0.5_N_100_box_50_run_${run_tau}_tau_num_${num}.dump
shell copy output.dump        output_T_0.5_N_100_box_50_run_1000_tau_num_${num}.dump
shell copy output.dump        output_T_0.5_N_100_box_50_run_1000_tau_num_1.dump
shell echo> T_${T}.done
shell echo> T_0.5.done

#clear
#next T
#jump in.run

Total wall time: 0:00:33
