ITEM: TIMESTEP
0
ITEM: NUMBER OF ATOMS
10
ITEM: BOX BOUNDS pp pp pp
-1.0000000000000000e+01 1.0000000000000000e+01
-1.0000000000000000e+01 1.0000000000000000e+01
-1.0000000000000000e+01 1.0000000000000000e+01
ITEM: ATOMS id mol type x y z vx vy vz 
1 1 1 1.20769 -2.54978 -4.287 0 0 0 
2 1 1 1.47922 -2.51526 -3.346 0 0 0 
3 1 1 1.75075 -2.48075 -2.405 0 0 0 
4 1 1 2.02227 -2.44624 -1.464 0 0 0 
5 1 1 2.2938 -2.41172 -0.522995 0 0 0 
6 1 1 2.56532 -2.37721 0.418006 0 0 0 
7 1 1 2.83685 -2.34269 1.35901 0 0 0 
8 1 1 3.10837 -2.30818 2.30001 0 0 0 
9 1 1 3.3799 -2.27367 3.24101 0 0 0 
10 1 1 3.65142 -2.23915 4.18201 0 0 0 
ITEM: TIMESTEP
1000
ITEM: NUMBER OF ATOMS
10
ITEM: BOX BOUNDS pp pp pp
-1.0000000000000000e+01 1.0000000000000000e+01
-1.0000000000000000e+01 1.0000000000000000e+01
-1.0000000000000000e+01 1.0000000000000000e+01
ITEM: ATOMS id mol type x y z vx vy vz 
1 1 1 1.25141 -2.79788 -5.78122 -0.680126 0.250826 -0.358642 
2 1 1 1.44803 -2.72827 -4.80498 -0.0779256 0.59649 -0.0514809 
3 1 1 1.65228 -2.65848 -3.87092 -0.200389 -0.426961 -0.503805 
4 1 1 1.85384 -2.59553 -2.90524 0.505599 0.651719 0.0856564 
5 1 1 2.0764 -2.50706 -1.91137 0.851193 -0.469416 0.446524 
6 1 1 2.80219 -2.26021 1.83777 -1.04657 -0.417783 0.211589 
7 1 1 2.9846 -2.19707 2.79903 -0.502814 0.116518 0.281183 
8 1 1 3.19483 -2.13806 3.73361 -0.388563 -0.282182 0.465935 
9 1 1 3.39651 -2.07388 4.70742 0.847438 -0.140557 0.460409 
10 1 1 3.63551 -1.98822 5.67096 0.887148 0.843904 -0.118237 
ITEM: TIMESTEP
2000
ITEM: NUMBER OF ATOMS
10
ITEM: BOX BOUNDS pp pp pp
-1.0000000000000000e+01 1.0000000000000000e+01
-1.0000000000000000e+01 1.0000000000000000e+01
-1.0000000000000000e+01 1.0000000000000000e+01
ITEM: ATOMS id mol type x y z vx vy vz 
1 1 1 0.458218 -2.79363 -5.05341 -1.05021 -0.151657 0.21353 
2 1 1 0.768289 -2.72382 -4.10944 -0.0167895 0.860258 1.40203 
3 1 1 1.08015 -2.62535 -3.18176 0.705466 -0.730388 0.0816877 
4 1 1 1.41083 -2.53727 -2.28842 0.852856 0.603511 -1.07301 
5 1 1 1.76776 -2.46714 -1.38374 -0.5083 -0.649491 0.531044 
6 1 1 2.91843 -2.29695 1.29904 -0.356275 -0.259666 0.217229 
7 1 1 3.33326 -2.25407 2.21411 -0.0510005 -0.73749 -0.228526 
8 1 1 3.76953 -2.17201 3.116 -0.15736 1.06859 0.421288 
9 1 1 4.17675 -2.07899 3.97984 -0.959703 0.228465 -0.682052 
10 1 1 4.61239 -1.99543 4.88284 -0.697462 -0.106031 0.72022 
ITEM: TIMESTEP
3000
ITEM: NUMBER OF ATOMS
10
ITEM: BOX BOUNDS pp pp pp
-1.0000000000000000e+01 1.0000000000000000e+01
-1.0000000000000000e+01 1.0000000000000000e+01
-1.0000000000000000e+01 1.0000000000000000e+01
ITEM: ATOMS id mol type x y z vx vy vz 
1 1 1 0.626201 -1.90673 -5.60343 -0.702727 0.43105 -1.05551 
2 1 1 0.889678 -1.96016 -4.69806 0.914936 -0.1299 0.93521 
3 1 1 1.17882 -2.00287 -3.75138 -1.30087 -0.710745 -0.908706 
4 1 1 1.47925 -2.07403 -2.80455 -0.189664 0.134476 -1.14139 
5 1 1 1.75582 -2.14692 -1.88992 -1.3367 0.477333 0.409607 
6 1 1 3.00316 -2.58084 1.85075 -1.12829 0.732951 -0.660517 
7 1 1 3.31205 -2.68528 2.75927 1.22698 0.173993 -0.134745 
8 1 1 3.65798 -2.77477 3.64098 -0.498827 0.534638 0.880547 
9 1 1 4.0205 -2.85686 4.52673 0.311832 -0.470183 -0.506073 
10 1 1 4.37214 -2.95619 5.44467 -0.261049 -0.0449123 -0.0685336 
ITEM: TIMESTEP
4000
ITEM: NUMBER OF ATOMS
10
ITEM: BOX BOUNDS pp pp pp
-1.0000000000000000e+01 1.0000000000000000e+01
-1.0000000000000000e+01 1.0000000000000000e+01
-1.0000000000000000e+01 1.0000000000000000e+01
ITEM: ATOMS id mol type x y z vx vy vz 
1 1 1 -0.380565 -2.89335 -5.56622 -0.436232 0.171737 -0.377575 
2 1 1 0.0187051 -2.75425 -4.67962 1.72151 -0.344736 -0.531578 
3 1 1 0.458658 -2.63667 -3.78113 -0.575212 0.532125 0.182714 
4 1 1 0.903657 -2.54598 -2.9514 0.0288646 0.497761 -0.900889 
5 1 1 1.34532 -2.47364 -2.08791 -0.854399 0.485692 0.40676 
6 1 1 3.47171 -2.20701 1.98454 0.482495 -0.684669 0.586374 
7 1 1 3.91107 -2.16931 2.83444 -0.964331 0.872746 0.223924 
8 1 1 4.38214 -2.12128 3.71773 0.0025898 0.594368 0.748367 
9 1 1 4.85357 -2.09814 4.578 -1.38745 0.583868 0.133212 
10 1 1 5.33134 -2.04503 5.42664 -0.467795 0.0158697 -0.0172184 
ITEM: TIMESTEP
5000
ITEM: NUMBER OF ATOMS
10
ITEM: BOX BOUNDS pp pp pp
-1.0000000000000000e+01 1.0000000000000000e+01
-1.0000000000000000e+01 1.0000000000000000e+01
-1.0000000000000000e+01 1.0000000000000000e+01
ITEM: ATOMS id mol type x y z vx vy vz 
1 1 1 -0.484999 -3.19237 -5.784 0.282661 -0.548625 -0.107514 
2 1 1 -0.0247068 -3.09284 -4.95935 -0.91592 -0.587115 -0.203816 
3 1 1 0.38014 -2.9971 -4.0672 -0.75687 0.175044 0.812068 
4 1 1 0.78396 -2.87869 -3.17265 -0.794882 -0.972707 0.320926 
5 1 1 1.22641 -2.73857 -2.23093 0.405702 0.151247 0.220032 
6 1 1 3.5828 -2.06754 2.23549 -0.18943 0.467989 -0.191594 
7 1 1 4.04075 -1.94226 3.08217 -0.368886 0.0837878 0.462618 
8 1 1 4.47519 -1.81402 3.92705 -0.00756029 0.388227 -1.22205 
9 1 1 4.93442 -1.6671 4.79671 -0.843218 0.269287 0.198456 
10 1 1 5.38164 -1.55416 5.64778 -2.03662 -1.1921 0.49107 
ITEM: TIMESTEP
6000
ITEM: NUMBER OF ATOMS
10
ITEM: BOX BOUNDS pp pp pp
-1.0000000000000000e+01 1.0000000000000000e+01
-1.0000000000000000e+01 1.0000000000000000e+01
-1.0000000000000000e+01 1.0000000000000000e+01
ITEM: ATOMS id mol type x y z vx vy vz 
1 1 1 -0.208595 -2.66897 -5.1013 0.65829 -1.7721 -0.0086566 
2 1 1 0.206222 -2.67307 -4.22256 0.951141 1.40495 0.894578 
3 1 1 0.665472 -2.65787 -3.39117 -0.306709 0.302524 0.434962 
4 1 1 1.10312 -2.63275 -2.49577 0.910081 0.408259 1.80657 
5 1 1 1.53489 -2.57779 -1.62981 0.828987 0.0609358 0.554452 
6 1 1 3.18687 -2.31391 1.61215 0.177253 -0.0836067 -0.800964 
7 1 1 3.65912 -2.26809 2.44453 0.98488 -0.0135036 -1.22516 
8 1 1 4.19587 -2.17314 3.26859 -0.4264 0.0869247 -0.189194 
9 1 1 4.73119 -2.04997 4.09685 0.446198 1.34625 -0.463202 
10 1 1 5.22145 -1.92909 4.89356 1.39847 -0.657019 0.375623 
ITEM: TIMESTEP
7000
ITEM: NUMBER OF ATOMS
10
ITEM: BOX BOUNDS pp pp pp
-1.0000000000000000e+01 1.0000000000000000e+01
-1.0000000000000000e+01 1.0000000000000000e+01
-1.0000000000000000e+01 1.0000000000000000e+01
ITEM: ATOMS id mol type x y z vx vy vz 
1 1 1 -0.513876 -2.83983 -5.00675 -0.543212 -0.18629 0.840924 
2 1 1 0.0118292 -2.73312 -4.17983 -0.580903 -0.339685 0.390248 
3 1 1 0.505152 -2.62289 -3.33167 1.05858 0.0501408 0.471702 
4 1 1 0.986352 -2.52885 -2.47804 0.0833451 0.948018 0.613988 
5 1 1 1.50712 -2.46062 -1.648 -0.256965 0.537142 -1.24386 
6 1 1 3.36937 -2.25865 1.53078 -0.0965698 -0.550684 -0.224671 
7 1 1 3.84532 -2.21933 2.39752 -0.998381 -0.592511 0.201994 
8 1 1 4.35845 -2.15201 3.22364 0.487688 -0.366121 0.776113 
9 1 1 4.85279 -2.08701 4.04599 1.27323 -1.12913 -0.665953 
10 1 1 5.37309 -2.04234 4.92142 0.170936 0.532681 0.40989 
ITEM: TIMESTEP
8000
ITEM: NUMBER OF ATOMS
10
ITEM: BOX BOUNDS pp pp pp
-1.0000000000000000e+01 1.0000000000000000e+01
-1.0000000000000000e+01 1.0000000000000000e+01
-1.0000000000000000e+01 1.0000000000000000e+01
ITEM: ATOMS id mol type x y z vx vy vz 
1 1 1 -0.355505 -2.74862 -5.72312 0.727637 0.177219 0.515211 
2 1 1 0.0630289 -2.74464 -4.83651 0.306295 -0.712084 -1.141 
3 1 1 0.492548 -2.72282 -3.97047 -0.495905 -0.229745 -0.362652 
4 1 1 0.907077 -2.66524 -3.07224 -0.138892 -0.074295 -0.354697 
5 1 1 1.31605 -2.58222 -2.19098 -0.337644 0.63532 -0.985545 
6 1 1 3.4669 -2.24157 2.08366 -0.521562 -0.974726 0.860213 
7 1 1 3.91647 -2.15952 2.98998 -0.293499 -0.372909 -0.607175 
8 1 1 4.39051 -2.08541 3.8726 -0.25119 0.380003 0.207468 
9 1 1 4.82471 -2.03507 4.7286 -0.104143 -0.510798 0.868285 
10 1 1 5.27382 -1.95955 5.59353 0.868188 -0.963024 0.298845 
ITEM: TIMESTEP
9000
ITEM: NUMBER OF ATOMS
10
ITEM: BOX BOUNDS pp pp pp
-1.0000000000000000e+01 1.0000000000000000e+01
-1.0000000000000000e+01 1.0000000000000000e+01
-1.0000000000000000e+01 1.0000000000000000e+01
ITEM: ATOMS id mol type x y z vx vy vz 
1 1 1 -0.96649 -3.76052 -5.74572 -0.670105 -0.620575 -1.74986 
2 1 1 -0.480429 -3.5474 -4.91706 1.25213 0.725927 -0.886768 
3 1 1 -0.0306806 -3.35627 -4.07586 -0.315782 -1.30304 0.341788 
4 1 1 0.443513 -3.15637 -3.2265 0.780183 -0.428644 0.51653 
5 1 1 0.938215 -2.97571 -2.37774 0.139026 0.221839 0.349402 
6 1 1 3.92314 -1.87262 2.30847 0.353707 0.554492 -0.266865 
7 1 1 4.40571 -1.64877 3.13263 1.68297 -0.25378 0.807769 
8 1 1 4.88889 -1.40758 3.96274 -0.957419 0.0517244 0.321609 
9 1 1 5.35575 -1.19787 4.77817 -0.930068 -0.140274 -1.05162 
10 1 1 5.81799 -1.02154 5.63592 -0.059632 -0.496449 0.588178 
ITEM: TIMESTEP
10000
ITEM: NUMBER OF ATOMS
10
ITEM: BOX BOUNDS pp pp pp
-1.0000000000000000e+01 1.0000000000000000e+01
-1.0000000000000000e+01 1.0000000000000000e+01
-1.0000000000000000e+01 1.0000000000000000e+01
ITEM: ATOMS id mol type x y z vx vy vz 
1 1 1 0.714428 -2.62357 -6.39891 0.861041 0.909566 -0.710884 
2 1 1 0.920138 -2.61308 -5.44583 0.939692 -0.0844429 -0.185503 
3 1 1 1.14058 -2.5892 -4.47785 -0.358272 -0.0651429 0.0824295 
4 1 1 1.36489 -2.54333 -3.55342 -0.0904152 0.884457 0.551086 
5 1 1 1.6281 -2.50054 -2.64603 -0.0124871 0.479568 -0.622403 
6 1 1 3.11718 -2.31355 2.50423 -0.780872 -0.446433 0.58134 
7 1 1 3.40413 -2.25336 3.45134 -0.101336 -1.01128 0.122991 
8 1 1 3.71061 -2.19247 4.41436 -0.714696 0.830923 -1.44413 
9 1 1 4.00573 -2.16853 5.34673 0.19034 0.282167 -0.438842 
10 1 1 4.28982 -2.14703 6.28042 -0.271247 -0.618841 0.988956 
ITEM: TIMESTEP
11000
ITEM: NUMBER OF ATOMS
10
ITEM: BOX BOUNDS pp pp pp
-1.0000000000000000e+01 1.0000000000000000e+01
-1.0000000000000000e+01 1.0000000000000000e+01
-1.0000000000000000e+01 1.0000000000000000e+01
ITEM: ATOMS id mol type x y z vx vy vz 
1 1 1 0.84097 -2.03551 -7.08128 0.144873 -1.17248 0.193681 
2 1 1 1.06507 -2.11293 -6.15583 0.705444 0.549427 -0.861806 
3 1 1 1.29539 -2.17533 -5.21547 -0.299614 -0.256595 -0.896102 
4 1 1 1.48618 -2.22337 -4.2451 1.17305 -0.401084 -0.378015 
5 1 1 1.69458 -2.28478 -3.3055 -0.322525 -0.367109 0.0479244 
6 1 1 3.11065 -2.59346 3.20658 0.199226 0.308835 -0.623414 
7 1 1 3.3297 -2.60295 4.14406 -0.113559 0.5526 -0.295419 
8 1 1 3.55702 -2.61203 5.12361 -0.262703 -0.0822214 0.7377 
9 1 1 3.83537 -2.63292 6.05381 -0.295405 -0.00939091 1.28348 
10 1 1 4.08066 -2.67137 6.95017 1.10688 -0.94706 1.04939 
ITEM: TIMESTEP
12000
ITEM: NUMBER OF ATOMS
10
ITEM: BOX BOUNDS pp pp pp
-1.0000000000000000e+01 1.0000000000000000e+01
-1.0000000000000000e+01 1.0000000000000000e+01
-1.0000000000000000e+01 1.0000000000000000e+01
ITEM: ATOMS id mol type x y z vx vy vz 
1 1 1 1.65289 -1.93787 -8.58751 -0.421617 0.553435 -1.09628 
2 1 1 1.767 -1.96842 -7.56293 -0.568663 -0.0520273 0.395728 
3 1 1 1.86574 -2.02476 -6.57833 1.18171 -0.13232 1.2585 
4 1 1 1.95295 -2.0977 -5.62361 -0.405244 0.55291 -0.317638 
5 1 1 2.04533 -2.15322 -4.65199 -0.147438 0.957956 -1.0851 
6 1 1 2.83277 -2.63036 4.54458 -0.182771 -0.410447 0.192772 
7 1 1 2.91555 -2.71069 5.51268 -0.136502 -0.0498056 0.844564 
8 1 1 3.01038 -2.76853 6.48976 0.28758 0.728181 1.13354 
9 1 1 3.09122 -2.81549 7.47037 0.573882 -0.201587 -0.256103 
10 1 1 3.16178 -2.83761 8.46205 0.0583143 0.869515 -1.16612 
ITEM: TIMESTEP
13000
ITEM: NUMBER OF ATOMS
10
ITEM: BOX BOUNDS pp pp pp
-1.0000000000000000e+01 1.0000000000000000e+01
-1.0000000000000000e+01 1.0000000000000000e+01
-1.0000000000000000e+01 1.0000000000000000e+01
ITEM: ATOMS id mol type x y z vx vy vz 
1 1 1 3.44636 -0.689385 -8.91529 -0.0737605 0.636251 0.00171846 
2 1 1 3.35768 -0.927624 -7.9594 -0.932714 -0.0327985 0.104163 
3 1 1 3.268 -1.16559 -7.00656 1.07264 -0.378413 0.0219534 
4 1 1 3.18367 -1.38027 -6.05579 0.80659 -0.237574 0.126491 
5 1 1 3.12081 -1.59539 -5.13101 0.378107 0.574708 -0.553158 
6 1 1 1.88986 -3.37173 5.00483 -1.49714 -0.211201 -0.00687451 
7 1 1 1.7238 -3.51627 5.97337 -0.0736066 0.154238 -2.39479 
8 1 1 1.58728 -3.64706 6.90872 0.836893 -0.823109 0.46628 
9 1 1 1.44174 -3.75908 7.84444 -0.392225 -0.109684 1.15754 
10 1 1 1.2764 -3.89226 8.81174 -0.733252 -1.29135 0.612191 
ITEM: TIMESTEP
14000
ITEM: NUMBER OF ATOMS
10
ITEM: BOX BOUNDS pp pp pp
-1.0000000000000000e+01 1.0000000000000000e+01
-1.0000000000000000e+01 1.0000000000000000e+01
-1.0000000000000000e+01 1.0000000000000000e+01
ITEM: ATOMS id mol type x y z vx vy vz 
1 1 1 3.62747 -1.22173 -8.37613 -0.753978 1.06622 0.710056 
2 1 1 3.45852 -1.39045 -7.42369 -0.0411628 -0.0210327 0.792336 
3 1 1 3.26965 -1.53882 -6.45647 0.677118 -0.261399 0.561844 
4 1 1 3.10651 -1.69668 -5.50671 -1.03156 0.464991 0.599633 
5 1 1 2.94937 -1.86125 -4.53045 0.511126 -0.829117 -0.166761 
6 1 1 1.84348 -3.05402 4.40192 -0.372698 0.238267 -0.322755 
7 1 1 1.71781 -3.17325 5.38297 -0.853292 0.734319 0.776924 
8 1 1 1.57737 -3.26473 6.35828 0.91461 -0.32367 -0.695889 
9 1 1 1.44351 -3.32454 7.33301 -1.38092 -0.10073 -0.924987 
10 1 1 1.30191 -3.41919 8.29233 0.0838583 0.217746 -0.22133 
ITEM: TIMESTEP
15000
ITEM: NUMBER OF ATOMS
10
ITEM: BOX BOUNDS pp pp pp
-1.0000000000000000e+01 1.0000000000000000e+01
-1.0000000000000000e+01 1.0000000000000000e+01
-1.0000000000000000e+01 1.0000000000000000e+01
ITEM: ATOMS id mol type x y z vx vy vz 
1 1 1 2.67941 -1.40137 -7.5078 -0.00176161 0.512551 1.19297 
2 1 1 2.64202 -1.51188 -6.53839 0.364053 0.0393387 1.00984 
3 1 1 2.59659 -1.63074 -5.55145 0.122972 0.12217 0.563337 
4 1 1 2.54957 -1.75506 -4.61701 0.874686 -1.34547 0.303402 
5 1 1 2.52197 -1.89765 -3.61672 0.703081 0.235269 0.144951 
6 1 1 2.32584 -2.92604 3.52594 0.138999 -0.020124 -0.812149 
7 1 1 2.29286 -3.04936 4.48195 0.413571 -1.13602 0.351445 
8 1 1 2.25555 -3.15213 5.44741 0.520315 -0.41757 -0.0127809 
9 1 1 2.23692 -3.25157 6.431 0.226619 0.588945 -0.375116 
10 1 1 2.19487 -3.36885 7.42013 0.820542 0.41796 -0.943578 
ITEM: TIMESTEP
16000
ITEM: NUMBER OF ATOMS
10
ITEM: BOX BOUNDS pp pp pp
-1.0000000000000000e+01 1.0000000000000000e+01
-1.0000000000000000e+01 1.0000000000000000e+01
-1.0000000000000000e+01 1.0000000000000000e+01
ITEM: ATOMS id mol type x y z vx vy vz 
1 1 1 1.6188 -0.542679 -7.44117 -0.108197 0.160131 0.463345 
2 1 1 1.66566 -0.826901 -6.50137 -0.279203 0.19537 -0.989179 
3 1 1 1.73969 -1.11372 -5.60196 -0.992638 1.32388 -0.737598 
4 1 1 1.83877 -1.37923 -4.64537 0.098888 -0.332531 0.906046 
5 1 1 1.93552 -1.61666 -3.66872 1.06082 -0.884744 -0.411147 
6 1 1 2.82878 -3.20773 3.59156 0.31994 0.113633 -0.375696 
7 1 1 2.95932 -3.45684 4.52627 -0.923434 0.13048 -0.924737 
8 1 1 3.11418 -3.71144 5.45372 0.482027 1.10922 -0.392976 
9 1 1 3.25167 -3.945 6.41478 -0.488726 -0.930395 -0.91201 
10 1 1 3.34321 -4.14446 7.34733 0.523998 0.622123 0.292948 
ITEM: TIMESTEP
17000
ITEM: NUMBER OF ATOMS
10
ITEM: BOX BOUNDS pp pp pp
-1.0000000000000000e+01 1.0000000000000000e+01
-1.0000000000000000e+01 1.0000000000000000e+01
-1.0000000000000000e+01 1.0000000000000000e+01
ITEM: ATOMS id mol type x y z vx vy vz 
1 1 1 1.71302 -0.151201 -6.14516 -0.416512 -0.0208666 1.92675 
2 1 1 1.82599 -0.523541 -5.21383 0.14161 0.16171 0.534933 
3 1 1 1.92431 -0.853495 -4.29888 1.2656 -0.164301 -0.207222 
4 1 1 2.03827 -1.18709 -3.37227 0.686814 0.466987 -0.753971 
5 1 1 2.14422 -1.52368 -2.45386 0.355806 2.09977 0.200507 
6 1 1 2.64645 -3.26888 2.35936 1.04918 -0.0794598 1.45645 
7 1 1 2.77713 -3.64491 3.28215 -0.0775372 0.287854 0.151212 
8 1 1 2.92331 -3.9574 4.20133 -0.147198 0.107026 -2.15228 
9 1 1 3.07207 -4.2662 5.09962 0.0152352 -0.852843 -0.472884 
10 1 1 3.23082 -4.56825 6.01658 1.13823 -1.06289 0.262789 
ITEM: TIMESTEP
18000
ITEM: NUMBER OF ATOMS
10
ITEM: BOX BOUNDS pp pp pp
-1.0000000000000000e+01 1.0000000000000000e+01
-1.0000000000000000e+01 1.0000000000000000e+01
-1.0000000000000000e+01 1.0000000000000000e+01
ITEM: ATOMS id mol type x y z vx vy vz 
1 1 1 2.21208 -0.902909 -6.1821 0.385499 -0.370496 0.0745011 
2 1 1 2.22949 -1.15973 -5.23145 -0.0347764 -0.564683 -0.730123 
3 1 1 2.27192 -1.38954 -4.30566 -0.34425 -0.159229 -0.293306 
4 1 1 2.30875 -1.59387 -3.36613 0.5932 -0.474835 0.558225 
5 1 1 2.36598 -1.83122 -2.38543 -0.455571 -0.680929 -0.507027 
6 1 1 2.57266 -2.93517 2.27522 -0.286492 0.31433 1.56815 
7 1 1 2.58931 -3.14644 3.22722 0.978591 1.24743 -1.5973 
8 1 1 2.57582 -3.41468 4.17941 0.626893 0.559252 0.224009 
9 1 1 2.57741 -3.66255 5.15109 0.0405131 0.479981 -0.868792 
10 1 1 2.59218 -3.90855 6.11288 -0.180597 0.755603 0.596719 
ITEM: TIMESTEP
19000
ITEM: NUMBER OF ATOMS
10
ITEM: BOX BOUNDS pp pp pp
-1.0000000000000000e+01 1.0000000000000000e+01
-1.0000000000000000e+01 1.0000000000000000e+01
-1.0000000000000000e+01 1.0000000000000000e+01
ITEM: ATOMS id mol type x y z vx vy vz 
1 1 1 1.82504 -1.0718 -6.31195 -0.752602 -0.157717 -0.46538 
2 1 1 1.89554 -1.25281 -5.36794 -1.30807 -0.285474 0.458201 
3 1 1 1.99991 -1.44494 -4.41284 0.942797 0.455593 -1.12205 
4 1 1 2.11298 -1.65009 -3.44895 0.0445809 0.596553 0.660402 
5 1 1 2.19859 -1.83939 -2.49798 1.19125 -0.486692 -0.229571 
6 1 1 2.66015 -2.88029 2.391 0.486529 0.349459 -0.548683 
7 1 1 2.74422 -3.11171 3.34045 -0.638014 -0.47735 -1.35209 
8 1 1 2.83035 -3.3146 4.30272 0.0258987 1.2955 0.90715 
9 1 1 2.95204 -3.55434 5.26124 -0.443637 0.181082 -0.0530025 
10 1 1 3.07679 -3.82468 6.2193 0.280944 0.412605 -0.0531232 
ITEM: TIMESTEP
20000
ITEM: NUMBER OF ATOMS
10
ITEM: BOX BOUNDS pp pp pp
-1.0000000000000000e+01 1.0000000000000000e+01
-1.0000000000000000e+01 1.0000000000000000e+01
-1.0000000000000000e+01 1.0000000000000000e+01
ITEM: ATOMS id mol type x y z vx vy vz 
1 1 1 2.30417 -1.21092 -6.87173 -0.618722 -0.0832097 0.230532 
2 1 1 2.31293 -1.39332 -5.89235 0.548756 -0.0555733 -0.511699 
3 1 1 2.35232 -1.5905 -4.87657 1.60107 -0.236195 -0.657343 
4 1 1 2.4075 -1.7819 -3.86383 0.369598 -1.25934 -0.433482 
5 1 1 2.419 -1.95302 -2.90139 0.51299 -0.0517832 -0.585331 
6 1 1 2.50485 -2.90047 2.81253 -0.685712 0.532375 0.310754 
7 1 1 2.50376 -3.05142 3.79819 0.237996 0.0146811 0.316553 
8 1 1 2.50098 -3.18813 4.79355 1.55057 0.892627 -0.322793 
9 1 1 2.4898 -3.35521 5.75666 -0.928817 0.442898 0.0664534 
10 1 1 2.50029 -3.51978 6.71999 0.107007 0.284372 -0.152177 
