ITEM: TIMESTEP
0
ITEM: NUMBER OF ATOMS
10
ITEM: BOX BOUNDS pp pp pp
-1.0000000000000000e+01 1.0000000000000000e+01
-1.0000000000000000e+01 1.0000000000000000e+01
-1.0000000000000000e+01 1.0000000000000000e+01
ITEM: ATOMS id mol type x y z vx vy vz 
1 1 1 1.20769 -2.54978 -4.287 0 0 0 
2 1 2 1.47922 -2.51526 -3.346 0 0 0 
3 1 3 1.75075 -2.48075 -2.405 0 0 0 
4 1 4 2.02227 -2.44624 -1.464 0 0 0 
5 1 5 2.2938 -2.41172 -0.522995 0 0 0 
6 1 6 2.56532 -2.37721 0.418006 0 0 0 
7 1 7 2.83685 -2.34269 1.35901 0 0 0 
8 1 8 3.10837 -2.30818 2.30001 0 0 0 
9 1 9 3.3799 -2.27367 3.24101 0 0 0 
10 1 10 3.65142 -2.23915 4.18201 0 0 0 
ITEM: TIMESTEP
1000
ITEM: NUMBER OF ATOMS
10
ITEM: BOX BOUNDS pp pp pp
-1.0000000000000000e+01 1.0000000000000000e+01
-1.0000000000000000e+01 1.0000000000000000e+01
-1.0000000000000000e+01 1.0000000000000000e+01
ITEM: ATOMS id mol type x y z vx vy vz 
1 1 1 1.80187 -2.67427 -4.07826 -0.304663 0.522391 0.366235 
2 1 2 1.89996 -2.65551 -3.08627 -0.0575977 0.516177 0.0707944 
3 1 3 1.99851 -2.62384 -2.13743 0.162197 -0.0238073 -0.504609 
4 1 4 2.07226 -2.58571 -1.16502 -1.1612 -0.199225 0.303836 
5 1 5 2.12807 -2.4732 -0.162843 0.915324 0.329057 0.795111 
6 1 6 2.92336 -2.75403 0.160024 0.969529 -1.86816 0.393527 
7 1 7 2.91323 -2.48097 1.10294 0.217833 0.728665 0.115681 
8 1 8 2.88828 -2.21486 2.01319 -0.723595 -0.781335 0.449981 
9 1 9 2.84811 -1.90174 2.94523 -0.635694 0.499736 0.290959 
10 1 10 2.82194 -1.58055 3.88349 0.812854 0.99906 -1.36238 
ITEM: TIMESTEP
2000
ITEM: NUMBER OF ATOMS
10
ITEM: BOX BOUNDS pp pp pp
-1.0000000000000000e+01 1.0000000000000000e+01
-1.0000000000000000e+01 1.0000000000000000e+01
-1.0000000000000000e+01 1.0000000000000000e+01
ITEM: ATOMS id mol type x y z vx vy vz 
1 1 1 1.814 -1.30582 -2.92392 1.24022 -0.684041 0.300286 
2 1 2 1.64424 -1.8925 -2.12141 0.982793 -0.214849 -0.367466 
3 1 3 1.50275 -2.49538 -1.3352 -1.75674 0.484699 -0.691411 
4 1 4 1.37032 -3.08675 -0.598279 -0.599177 0.639016 -0.591191 
5 1 5 1.23128 -3.67893 0.159718 -1.23239 0.477652 1.58507 
6 1 6 2.21217 -3.46084 0.141838 -0.680179 0.135931 0.947276 
7 1 7 2.76973 -2.87072 0.696163 -0.829113 -1.04779 0.639999 
8 1 8 3.35442 -2.29805 1.25311 -0.249446 0.175605 0.00303853 
9 1 9 3.9174 -1.71869 1.79675 -0.0378313 0.461805 -0.192683 
10 1 10 4.4793 -1.13697 2.40629 0.923083 -0.301931 -0.029487 
ITEM: TIMESTEP
3000
ITEM: NUMBER OF ATOMS
10
ITEM: BOX BOUNDS pp pp pp
-1.0000000000000000e+01 1.0000000000000000e+01
-1.0000000000000000e+01 1.0000000000000000e+01
-1.0000000000000000e+01 1.0000000000000000e+01
ITEM: ATOMS id mol type x y z vx vy vz 
1 1 1 1.688 -1.79556 -3.72469 -0.0143089 0.59772 -1.3666 
2 1 2 1.57305 -1.96269 -2.79146 -0.470212 -0.58953 1.05918 
3 1 3 1.46278 -2.16125 -1.81527 -0.659791 -0.125641 -1.00231 
4 1 4 1.34037 -2.32045 -0.857794 -0.523099 0.887947 0.120294 
5 1 5 1.24221 -2.48046 0.0816657 -0.588216 0.110838 0.175771 
6 1 6 1.66128 -2.20821 0.916637 -0.465416 0.732404 -0.879228 
7 1 7 2.53417 -2.42466 1.31396 -0.471755 -1.52043 -0.108736 
8 1 8 3.40524 -2.64549 1.69696 0.153337 0.469214 0.0248992 
9 1 9 4.27026 -2.85138 2.11239 0.515741 0.0306818 -0.417443 
10 1 10 5.11823 -3.09451 2.54264 -0.440666 0.535501 0.14407 
ITEM: TIMESTEP
4000
ITEM: NUMBER OF ATOMS
10
ITEM: BOX BOUNDS pp pp pp
-1.0000000000000000e+01 1.0000000000000000e+01
-1.0000000000000000e+01 1.0000000000000000e+01
-1.0000000000000000e+01 1.0000000000000000e+01
ITEM: ATOMS id mol type x y z vx vy vz 
1 1 1 0.275635 -3.07707 -3.32499 0.208634 -0.0437855 -0.900411 
2 1 2 0.572662 -2.90802 -2.41131 -0.203717 0.242035 -0.213054 
3 1 3 0.891813 -2.71914 -1.4835 -0.809645 0.230133 0.136 
4 1 4 1.19058 -2.54373 -0.617605 0.525318 0.127981 -0.684728 
5 1 5 1.51273 -2.35498 0.278686 -0.152742 -0.822715 0.258404 
7 1 7 3.1244 -1.95507 0.91218 0.142548 0.632081 0.00855881 
6 1 6 2.28825 -1.85341 0.464958 -0.171522 1.98009 0.4293 
8 1 8 3.98086 -2.07028 1.39856 -0.877414 0.902552 0.655499 
9 1 9 4.81499 -2.18019 1.87348 -0.986416 -1.02218 0.50248 
10 1 10 5.64369 -2.28276 2.38458 -0.12501 0.498567 0.26204 
ITEM: TIMESTEP
5000
ITEM: NUMBER OF ATOMS
10
ITEM: BOX BOUNDS pp pp pp
-1.0000000000000000e+01 1.0000000000000000e+01
-1.0000000000000000e+01 1.0000000000000000e+01
-1.0000000000000000e+01 1.0000000000000000e+01
ITEM: ATOMS id mol type x y z vx vy vz 
1 1 1 0.536045 -3.71209 -3.28395 -0.156761 -0.453104 -0.00733732 
2 1 2 0.768668 -3.28203 -2.45094 -0.158012 0.539631 -0.443055 
3 1 3 1.0264 -2.8419 -1.60791 -0.779882 -0.609057 0.988121 
4 1 4 1.28235 -2.38632 -0.776889 -0.515676 -0.458349 0.0534353 
5 1 5 1.52746 -1.90725 0.107013 0.397523 -0.591503 0.337323 
6 1 6 2.11831 -1.58874 0.657733 0.0701805 0.0843847 0.542931 
7 1 7 2.97348 -1.7713 1.09969 -0.352601 -0.998078 0.55314 
8 1 8 3.8234 -1.95268 1.5149 -1.7848 -0.265774 -1.19881 
9 1 9 4.70126 -2.15396 1.90189 -0.506726 0.900953 -0.188298 
10 1 10 5.53822 -2.34839 2.31351 -1.43826 0.0859285 0.142745 
ITEM: TIMESTEP
6000
ITEM: NUMBER OF ATOMS
10
ITEM: BOX BOUNDS pp pp pp
-1.0000000000000000e+01 1.0000000000000000e+01
-1.0000000000000000e+01 1.0000000000000000e+01
-1.0000000000000000e+01 1.0000000000000000e+01
ITEM: ATOMS id mol type x y z vx vy vz 
1 1 1 -0.852983 -3.5824 -1.52768 0.0754332 0.167145 -0.120112 
2 1 2 -0.039693 -3.07638 -1.28384 1.0811 0.336221 2.3398 
3 1 3 0.751646 -2.57316 -1.05826 0.184639 -0.882475 0.14184 
4 1 4 1.58841 -2.02453 -0.854388 1.44865 -0.0992498 0.707009 
5 1 5 2.35996 -1.48741 -0.648024 -0.261426 0.655913 -0.168743 
6 1 6 2.98513 -2.14927 -0.597793 0.610753 0.482395 -1.02492 
7 1 7 3.51607 -2.21872 0.183933 -0.327174 -0.467934 -0.539513 
8 1 8 4.08747 -2.26843 0.970751 0.194789 0.580174 -0.784918 
9 1 9 4.66221 -2.28769 1.77412 1.39506 1.03229 -0.159702 
10 1 10 5.23738 -2.27667 2.51623 1.22036 -0.720865 0.988257 
ITEM: TIMESTEP
7000
ITEM: NUMBER OF ATOMS
10
ITEM: BOX BOUNDS pp pp pp
-1.0000000000000000e+01 1.0000000000000000e+01
-1.0000000000000000e+01 1.0000000000000000e+01
-1.0000000000000000e+01 1.0000000000000000e+01
ITEM: ATOMS id mol type x y z vx vy vz 
1 1 1 0.0654138 -4.29426 -1.30389 -0.69778 0.145806 -0.225549 
2 1 2 0.476684 -3.48145 -0.995374 -1.04418 -1.31025 0.150378 
3 1 3 0.886308 -2.64834 -0.67291 1.15412 -0.176582 0.640152 
4 1 4 1.31203 -1.84105 -0.332742 0.802938 0.034609 -0.55528 
6 1 6 2.63269 -0.893903 -0.247996 -0.733584 -0.0807786 0.310881 
5 1 5 1.73755 -1.03416 0.00280796 -0.0683781 0.746834 0.149068 
7 1 7 3.31179 -1.49661 0.165743 -1.36842 -0.495279 1.36466 
8 1 8 3.96606 -2.10882 0.570286 1.35554 0.565396 0.165456 
9 1 9 4.61116 -2.74198 0.952786 0.841092 0.601649 -0.305799 
10 1 10 5.29591 -3.40409 1.33635 0.356408 -1.12785 -0.123594 
ITEM: TIMESTEP
8000
ITEM: NUMBER OF ATOMS
10
ITEM: BOX BOUNDS pp pp pp
-1.0000000000000000e+01 1.0000000000000000e+01
-1.0000000000000000e+01 1.0000000000000000e+01
-1.0000000000000000e+01 1.0000000000000000e+01
ITEM: ATOMS id mol type x y z vx vy vz 
1 1 1 -0.158633 -3.71299 -1.66832 0.0493014 0.45899 -0.61216 
2 1 2 0.506677 -3.05749 -1.37372 0.212468 -0.189529 -0.393529 
3 1 3 1.15992 -2.40992 -1.04912 -1.29588 -0.108628 -0.69401 
4 1 4 1.79795 -1.7475 -0.701479 0.764237 0.204223 0.246079 
5 1 5 2.4592 -1.07731 -0.359971 0.630317 -0.512804 0.335964 
6 1 6 2.03103 -1.46487 0.443527 -0.301785 -0.627484 -0.226989 
8 1 8 3.72375 -2.37068 0.938498 -0.706823 -1.55533 0.0686735 
7 1 7 2.87448 -1.90013 0.679174 -0.226163 -0.802782 -0.277797 
10 1 10 5.3752 -3.35592 1.4113 1.03032 0.488224 0.268213 
9 1 9 4.52603 -2.84784 1.15516 -0.396714 8.15035e-05 0.58451 
ITEM: TIMESTEP
9000
ITEM: NUMBER OF ATOMS
10
ITEM: BOX BOUNDS pp pp pp
-1.0000000000000000e+01 1.0000000000000000e+01
-1.0000000000000000e+01 1.0000000000000000e+01
-1.0000000000000000e+01 1.0000000000000000e+01
ITEM: ATOMS id mol type x y z vx vy vz 
1 1 1 -0.440594 -4.67917 -1.06091 0.334703 -0.368209 -0.758172 
2 1 2 0.259388 -4.02072 -0.960769 0.191304 -0.0980067 -0.436703 
3 1 3 0.971229 -3.34844 -0.864603 -0.887169 -0.539784 -0.786834 
4 1 4 1.64885 -2.7011 -0.791324 0.714496 0.403474 -0.271413 
5 1 5 2.34551 -2.04985 -0.706508 0.406733 -0.144924 1.30163 
6 1 6 2.08598 -1.44994 0.0624729 0.602182 -0.282776 -0.622526 
7 1 7 2.97544 -1.44939 0.432285 -0.48541 -1.13968 -0.56367 
10 1 10 5.72319 -1.36818 1.47676 0.308094 0.290341 0.145092 
8 1 8 3.90602 -1.45184 0.774581 1.34107 0.053527 0.542996 
9 1 9 4.82058 -1.42604 1.11307 -1.25099 0.137266 0.419758 
ITEM: TIMESTEP
10000
ITEM: NUMBER OF ATOMS
10
ITEM: BOX BOUNDS pp pp pp
-1.0000000000000000e+01 1.0000000000000000e+01
-1.0000000000000000e+01 1.0000000000000000e+01
-1.0000000000000000e+01 1.0000000000000000e+01
ITEM: ATOMS id mol type x y z vx vy vz 
1 1 1 0.171491 -3.973 -2.76315 0.246162 -0.652234 -0.475325 
2 1 2 0.658041 -3.31562 -2.20851 -1.18825 0.812753 0.887132 
3 1 3 1.17609 -2.6382 -1.66279 0.634652 0.251649 -0.913042 
4 1 4 1.6518 -1.99657 -1.13347 1.63653 0.0923975 0.628846 
5 1 5 2.12826 -1.38938 -0.607241 0.598913 1.05918 -1.15034 
6 1 6 2.72674 -1.94182 -0.127088 -1.09669 0.459547 0.930161 
7 1 7 3.18936 -2.04366 0.710765 0.507511 -0.661818 -0.132095 
8 1 8 3.70209 -2.12794 1.57179 -0.851541 0.18153 -1.65542 
9 1 9 4.19036 -2.22605 2.42849 -0.968161 -0.886692 0.114788 
10 1 10 4.70135 -2.2924 3.26625 0.142626 0.504232 0.690337 
ITEM: TIMESTEP
11000
ITEM: NUMBER OF ATOMS
10
ITEM: BOX BOUNDS pp pp pp
-1.0000000000000000e+01 1.0000000000000000e+01
-1.0000000000000000e+01 1.0000000000000000e+01
-1.0000000000000000e+01 1.0000000000000000e+01
ITEM: ATOMS id mol type x y z vx vy vz 
1 1 1 0.0915667 -3.46403 -3.2743 0.144794 0.792544 0.0019177 
2 1 2 0.550176 -3.10984 -2.4816 0.750208 -0.83651 0.189177 
3 1 3 1.0239 -2.73298 -1.69089 -0.0315766 -0.111174 -0.256602 
4 1 4 1.48 -2.34766 -0.891873 0.231889 -1.71932 -0.299134 
6 1 6 2.87337 -1.99602 -0.127695 0.333015 -0.431626 -1.37216 
5 1 5 1.91833 -1.97066 -0.0996588 0.00772587 0.319117 0.219363 
7 1 7 3.34437 -2.01055 0.718352 0.0890951 0.291549 -0.268131 
8 1 8 3.83151 -2.0575 1.58955 0.189606 0.0340992 0.116759 
9 1 9 4.34938 -2.1005 2.45697 0.239972 0.233949 0.601664 
10 1 10 4.833 -2.15492 3.2762 0.0809415 -0.39771 1.32457 
ITEM: TIMESTEP
12000
ITEM: NUMBER OF ATOMS
10
ITEM: BOX BOUNDS pp pp pp
-1.0000000000000000e+01 1.0000000000000000e+01
-1.0000000000000000e+01 1.0000000000000000e+01
-1.0000000000000000e+01 1.0000000000000000e+01
ITEM: ATOMS id mol type x y z vx vy vz 
1 1 1 1.13916 -2.7318 -4.09201 -0.80449 0.697791 -1.38922 
2 1 2 1.55658 -2.64931 -3.15571 -0.988768 -0.40033 0.483186 
3 1 3 1.9414 -2.57705 -2.27557 0.273273 0.668895 0.998904 
4 1 4 2.32184 -2.49887 -1.40839 1.19459 0.0088599 -1.17668 
5 1 5 2.72874 -2.43436 -0.540276 0.650948 -0.315235 0.298615 
6 1 6 2.98249 -1.92965 0.266781 0.0655255 0.802797 -0.293538 
7 1 7 2.95914 -2.07709 1.23485 -1.00866 1.5071 0.708337 
8 1 8 2.94471 -2.21825 2.19256 0.141143 0.364528 1.0512 
9 1 9 2.89742 -2.3561 3.1437 1.04153 -0.195862 0.0583484 
10 1 10 2.82412 -2.47219 4.10912 -0.325848 -0.322733 -0.835294 
ITEM: TIMESTEP
13000
ITEM: NUMBER OF ATOMS
10
ITEM: BOX BOUNDS pp pp pp
-1.0000000000000000e+01 1.0000000000000000e+01
-1.0000000000000000e+01 1.0000000000000000e+01
-1.0000000000000000e+01 1.0000000000000000e+01
ITEM: ATOMS id mol type x y z vx vy vz 
1 1 1 3.88843 -3.07349 -3.02712 0.584476 0.510129 0.531191 
2 1 2 3.57557 -2.49268 -2.25857 0.407845 -0.169771 -1.50387 
3 1 3 3.25443 -1.90503 -1.54581 -0.289125 -0.0300395 0.764889 
4 1 4 2.94313 -1.32775 -0.835774 -0.435406 1.2252 0.302701 
5 1 5 2.63844 -0.791863 -0.103733 0.496881 -0.620932 -0.770542 
6 1 6 2.5578 -1.31834 0.684901 0.348456 -0.885491 -0.0717617 
7 1 7 2.05058 -2.11034 1.04502 1.11912 0.914426 0.0304328 
8 1 8 1.56968 -2.88033 1.41951 -0.267993 -1.8464 0.951656 
9 1 9 1.13421 -3.63963 1.83842 -1.12797 -0.401421 -0.0832112 
10 1 10 0.68332 -4.4052 2.25822 -1.44476 -0.414637 -0.615975 
ITEM: TIMESTEP
14000
ITEM: NUMBER OF ATOMS
10
ITEM: BOX BOUNDS pp pp pp
-1.0000000000000000e+01 1.0000000000000000e+01
-1.0000000000000000e+01 1.0000000000000000e+01
-1.0000000000000000e+01 1.0000000000000000e+01
ITEM: ATOMS id mol type x y z vx vy vz 
1 1 1 5.13462 -2.7099 -2.54327 0.001644 -0.0650713 1.1161 
2 1 2 4.22532 -2.55412 -2.19446 -0.375747 0.24785 0.244141 
3 1 3 3.32741 -2.42199 -1.82978 -0.688793 -0.0444298 0.49114 
4 1 4 2.45119 -2.27221 -1.43901 -0.336712 0.64667 0.302101 
5 1 5 1.56146 -2.13143 -1.02727 0.49027 -0.109267 -1.01279 
6 1 6 1.65006 -1.70129 -0.147698 -0.601721 -0.701123 -0.618579 
8 1 8 1.52277 -2.37818 1.69344 -0.596699 -0.703409 0.412399 
7 1 7 1.57011 -2.05551 0.775847 0.0745373 0.9148 -0.387379 
10 1 10 1.40483 -3.0157 3.563 0.252915 0.269549 0.537833 
9 1 9 1.44783 -2.70433 2.62425 -0.4666 0.730027 0.0241045 
ITEM: TIMESTEP
15000
ITEM: NUMBER OF ATOMS
10
ITEM: BOX BOUNDS pp pp pp
-1.0000000000000000e+01 1.0000000000000000e+01
-1.0000000000000000e+01 1.0000000000000000e+01
-1.0000000000000000e+01 1.0000000000000000e+01
ITEM: ATOMS id mol type x y z vx vy vz 
1 1 1 4.68295 -2.85791 -2.42406 0.00357836 -0.422744 -0.291099 
3 1 3 2.94668 -2.57622 -1.56871 1.74387 -0.302551 0.434101 
2 1 2 3.81739 -2.7171 -1.99649 -0.262637 0.261991 0.891013 
5 1 5 1.16179 -2.29179 -0.800442 0.144507 0.0264919 0.58045 
4 1 4 2.02361 -2.43935 -1.1819 0.634509 -0.285472 0.208077 
6 1 6 0.654439 -2.00795 0.0288713 0.0677036 -0.303094 -0.606892 
7 1 7 1.29331 -2.09508 0.758533 0.238481 -0.482408 0.659996 
8 1 8 1.92091 -2.21458 1.50337 0.691525 0.934782 0.334194 
9 1 9 2.5657 -2.32207 2.22018 1.00974 0.529143 -0.325928 
10 1 10 3.22882 -2.4226 2.93571 -0.0881987 -0.959086 -0.4616 
ITEM: TIMESTEP
16000
ITEM: NUMBER OF ATOMS
10
ITEM: BOX BOUNDS pp pp pp
-1.0000000000000000e+01 1.0000000000000000e+01
-1.0000000000000000e+01 1.0000000000000000e+01
-1.0000000000000000e+01 1.0000000000000000e+01
ITEM: ATOMS id mol type x y z vx vy vz 
1 1 1 4.44738 -1.52796 -1.94633 0.0997148 0.0880539 -0.246796 
2 1 2 3.52442 -1.78909 -1.66412 0.342455 0.947841 1.09805 
4 1 4 1.64097 -2.27288 -1.16195 -0.262517 -1.0037 -1.09122 
3 1 3 2.59754 -2.03417 -1.42019 -0.74016 -0.212147 0.74792 
5 1 5 0.684626 -2.4681 -0.906723 1.067 0.625801 -0.828211 
6 1 6 1.07441 -2.94625 -0.242265 -0.810957 0.136487 0.258567 
7 1 7 1.68111 -2.85515 0.538764 0.313152 0.0560322 -0.939044 
8 1 8 2.27071 -2.78775 1.31205 0.160199 0.262123 -0.303563 
9 1 9 2.89241 -2.68526 2.10189 -0.415283 1.32616 -1.17459 
10 1 10 3.48201 -2.57805 2.86393 -0.0601198 -0.719483 -0.602127 
ITEM: TIMESTEP
17000
ITEM: NUMBER OF ATOMS
10
ITEM: BOX BOUNDS pp pp pp
-1.0000000000000000e+01 1.0000000000000000e+01
-1.0000000000000000e+01 1.0000000000000000e+01
-1.0000000000000000e+01 1.0000000000000000e+01
ITEM: ATOMS id mol type x y z vx vy vz 
2 1 2 3.78731 -1.69402 0.17367 0.226132 0.553731 0.911729 
1 1 1 4.5231 -1.53125 0.790935 0.477006 0.437135 1.16911 
5 1 5 1.54313 -2.10827 -1.65668 0.645081 0.22664 0.488032 
4 1 4 2.30174 -1.98344 -1.08675 0.195996 0.797825 -1.53008 
3 1 3 3.06894 -1.83837 -0.457178 1.1962 0.729806 -0.538209 
6 1 6 0.681287 -2.25695 -1.12433 1.04569 -0.632534 1.49382 
7 1 7 1.24769 -2.60189 -0.377959 -0.454473 -0.356222 -0.0960881 
8 1 8 1.83217 -2.95169 0.342889 -1.08761 0.48606 -1.41181 
9 1 9 2.38863 -3.29934 1.07431 0.848374 -1.24989 -0.76365 
10 1 10 2.9216 -3.67945 1.79614 0.918824 -0.0495577 1.22342 
ITEM: TIMESTEP
18000
ITEM: NUMBER OF ATOMS
10
ITEM: BOX BOUNDS pp pp pp
-1.0000000000000000e+01 1.0000000000000000e+01
-1.0000000000000000e+01 1.0000000000000000e+01
-1.0000000000000000e+01 1.0000000000000000e+01
ITEM: ATOMS id mol type x y z vx vy vz 
5 1 5 1.50061 -2.85226 -1.88417 -0.129238 -0.730634 0.0838374 
6 1 6 1.33362 -3.00486 -0.972209 0.0654541 0.328735 -0.40721 
4 1 4 2.3756 -2.70944 -1.41236 -0.270818 0.398202 0.486453 
7 1 7 1.50053 -2.60377 -0.0716515 0.334834 -0.320277 0.0112573 
3 1 3 3.20078 -2.58182 -0.933329 -0.0158595 -0.453149 1.02421 
8 1 8 1.66366 -2.2195 0.829954 -0.305834 -1.0951 -0.548565 
2 1 2 4.04901 -2.42667 -0.450393 -0.157439 -0.66399 -0.220703 
9 1 9 1.8187 -1.82021 1.75967 -0.28181 0.985475 -0.96157 
1 1 1 4.89156 -2.24915 -0.000607103 0.73873 2.38739 -0.731047 
10 1 10 1.96154 -1.47699 2.61014 1.34499 0.269777 0.288396 
ITEM: TIMESTEP
19000
ITEM: NUMBER OF ATOMS
10
ITEM: BOX BOUNDS pp pp pp
-1.0000000000000000e+01 1.0000000000000000e+01
-1.0000000000000000e+01 1.0000000000000000e+01
-1.0000000000000000e+01 1.0000000000000000e+01
ITEM: ATOMS id mol type x y z vx vy vz 
5 1 5 1.37227 -3.07653 -1.03051 -0.243665 -0.342268 0.118768 
6 1 6 1.23417 -2.3166 -1.44672 0.336343 -0.467844 -0.24992 
4 1 4 2.31071 -2.90987 -0.800687 -0.565396 0.0822639 0.307321 
3 1 3 3.25571 -2.74191 -0.544814 0.696445 1.29013 -1.29857 
7 1 7 1.44132 -2.17123 -0.520477 -0.517769 0.559538 -0.745659 
2 1 2 4.19686 -2.60906 -0.280774 -0.481214 -0.37849 0.795314 
1 1 1 5.11146 -2.48628 -0.0294006 0.661558 -0.501938 -0.866443 
8 1 8 1.63322 -2.02693 0.414444 1.02806 0.317857 1.6793 
9 1 9 1.80019 -1.86484 1.38143 -0.875594 0.328451 -0.128232 
10 1 10 1.93967 -1.74142 2.33256 -0.209087 0.995853 -1.41002 
ITEM: TIMESTEP
20000
ITEM: NUMBER OF ATOMS
10
ITEM: BOX BOUNDS pp pp pp
-1.0000000000000000e+01 1.0000000000000000e+01
-1.0000000000000000e+01 1.0000000000000000e+01
-1.0000000000000000e+01 1.0000000000000000e+01
ITEM: ATOMS id mol type x y z vx vy vz 
5 1 5 1.61053 -2.73517 -2.0788 0.723156 -0.541616 -0.751674 
4 1 4 2.23548 -2.85468 -1.28231 -0.263716 -1.3892 -0.539712 
6 1 6 1.19874 -2.29182 -1.28838 -0.105366 -0.825153 -0.363847 
3 1 3 2.82565 -3.02685 -0.480897 -0.115739 0.566775 0.444121 
2 1 2 3.39061 -3.17212 0.297563 0.454717 1.45126 0.0264877 
1 1 1 3.96316 -3.29529 1.08645 -0.323102 0.416018 -0.249791 
7 1 7 1.62566 -2.05729 -0.47501 0.303947 0.573198 -0.57499 
8 1 8 2.05978 -1.78756 0.390646 -0.195791 0.563005 0.20997 
9 1 9 2.48814 -1.50285 1.2344 2.19774 -0.378527 0.0542943 
10 1 10 2.89784 -1.22102 2.07139 0.0188873 0.0450941 0.00660857 
