ITEM: TIMESTEP
0
ITEM: NUMBER OF ATOMS
10
ITEM: BOX BOUNDS pp pp pp
-1.0000000000000000e+01 1.0000000000000000e+01
-1.0000000000000000e+01 1.0000000000000000e+01
-1.0000000000000000e+01 1.0000000000000000e+01
ITEM: ATOMS id mol type x y z vx vy vz 
1 1 1 1.20769 -2.54978 -4.287 0 0 0 
2 1 1 1.47922 -2.51526 -3.346 0 0 0 
3 1 1 1.75075 -2.48075 -2.405 0 0 0 
4 1 1 2.02227 -2.44624 -1.464 0 0 0 
5 1 1 2.2938 -2.41172 -0.522995 0 0 0 
6 1 1 2.56532 -2.37721 0.418006 0 0 0 
7 1 1 2.83685 -2.34269 1.35901 0 0 0 
8 1 1 3.10837 -2.30818 2.30001 0 0 0 
9 1 1 3.3799 -2.27367 3.24101 0 0 0 
10 1 1 3.65142 -2.23915 4.18201 0 0 0 
ITEM: TIMESTEP
1000
ITEM: NUMBER OF ATOMS
10
ITEM: BOX BOUNDS pp pp pp
-1.0000000000000000e+01 1.0000000000000000e+01
-1.0000000000000000e+01 1.0000000000000000e+01
-1.0000000000000000e+01 1.0000000000000000e+01
ITEM: ATOMS id mol type x y z vx vy vz 
1 1 1 1.66242 -2.86612 -4.38038 0.0502848 0.572225 -1.25204 
2 1 1 1.8363 -2.78804 -3.39339 -0.977498 0.048817 -0.425286 
3 1 1 2.01687 -2.69215 -2.46611 0.543599 -0.89161 -0.912607 
4 1 1 2.18007 -2.58961 -1.49327 -0.348364 0.527728 0.0587479 
5 1 1 2.3649 -2.45739 -0.505635 0.318184 -0.387812 0.20533 
6 1 1 2.51018 -2.30664 0.444827 -0.600289 -0.515185 0.589547 
7 1 1 2.66832 -2.19743 1.38914 0.413814 0.301355 0.164827 
8 1 1 2.82776 -2.10266 2.32564 -0.722705 0.0172162 0.851864 
9 1 1 3.00174 -2.01415 3.28751 1.20268 0.566496 0.976074 
10 1 1 3.22703 -1.93046 4.26673 0.315285 0.483327 0.662679 
ITEM: TIMESTEP
2000
ITEM: NUMBER OF ATOMS
10
ITEM: BOX BOUNDS pp pp pp
-1.0000000000000000e+01 1.0000000000000000e+01
-1.0000000000000000e+01 1.0000000000000000e+01
-1.0000000000000000e+01 1.0000000000000000e+01
ITEM: ATOMS id mol type x y z vx vy vz 
1 1 1 0.936497 -3.0575 -4.16051 -1.48178 -0.503591 0.149332 
2 1 1 1.22189 -2.93144 -3.22089 0.29586 1.58557 -0.298982 
3 1 1 1.52732 -2.78701 -2.26055 0.786338 -0.625395 0.635096 
4 1 1 1.80274 -2.64622 -1.37464 0.645212 -0.470553 -0.114503 
5 1 1 2.14041 -2.46465 -0.489572 -0.516607 -0.967038 -0.261155 
6 1 1 2.53033 -2.28892 0.403523 -0.0224817 0.00931344 0.759426 
7 1 1 2.93482 -2.14479 1.30021 -0.725948 0.657886 -0.800194 
8 1 1 3.32592 -2.00525 2.20074 0.409537 0.42829 -0.392261 
9 1 1 3.73119 -1.87564 3.09485 -1.29598 -0.0236564 1.1978 
10 1 1 4.14449 -1.74323 3.98189 -0.332926 0.035269 0.728878 
ITEM: TIMESTEP
3000
ITEM: NUMBER OF ATOMS
10
ITEM: BOX BOUNDS pp pp pp
-1.0000000000000000e+01 1.0000000000000000e+01
-1.0000000000000000e+01 1.0000000000000000e+01
-1.0000000000000000e+01 1.0000000000000000e+01
ITEM: ATOMS id mol type x y z vx vy vz 
1 1 1 1.25162 -2.06674 -4.32567 -0.389604 0.949358 -0.433774 
2 1 1 1.4949 -2.12057 -3.36415 -0.290138 -0.705792 0.604444 
3 1 1 1.74525 -2.19403 -2.42429 -0.320615 -0.695902 0.00733638 
4 1 1 2.00344 -2.274 -1.44419 0.549447 -0.62908 0.0131502 
5 1 1 2.2488 -2.33209 -0.49359 -1.16626 0.634915 -0.573456 
6 1 1 2.4944 -2.39042 0.443536 -1.02612 0.573358 0.486494 
7 1 1 2.79101 -2.49248 1.3933 0.157507 0.760937 -1.6335 
8 1 1 3.09476 -2.58303 2.30633 -1.07741 0.899782 0.382702 
9 1 1 3.41144 -2.69154 3.20892 1.07046 -0.0676253 -0.283346 
10 1 1 3.75999 -2.79976 4.17486 -0.471659 -0.591249 -0.820152 
ITEM: TIMESTEP
4000
ITEM: NUMBER OF ATOMS
10
ITEM: BOX BOUNDS pp pp pp
-1.0000000000000000e+01 1.0000000000000000e+01
-1.0000000000000000e+01 1.0000000000000000e+01
-1.0000000000000000e+01 1.0000000000000000e+01
ITEM: ATOMS id mol type x y z vx vy vz 
1 1 1 0.449676 -3.36606 -3.90238 -0.414679 0.381231 -0.73416 
2 1 1 0.846153 -3.12315 -3.03348 1.44767 -0.673269 -0.455792 
3 1 1 1.26598 -2.88427 -2.17276 -1.06375 0.854648 -0.601284 
4 1 1 1.69963 -2.67406 -1.35413 0.423443 0.410226 0.342852 
5 1 1 2.15982 -2.45619 -0.488515 -0.306435 0.0231337 1.02266 
6 1 1 2.64708 -2.23902 0.360359 0.244601 -0.276137 -0.0416696 
7 1 1 3.11608 -2.0537 1.23315 -1.87953 1.2157 -0.749335 
8 1 1 3.57305 -1.87272 2.10546 0.674474 0.142973 1.4879 
9 1 1 4.03376 -1.7197 2.94983 -0.912271 0.92378 -0.124318 
10 1 1 4.50436 -1.55579 3.77751 -0.663486 -0.277527 0.307237 
ITEM: TIMESTEP
5000
ITEM: NUMBER OF ATOMS
10
ITEM: BOX BOUNDS pp pp pp
-1.0000000000000000e+01 1.0000000000000000e+01
-1.0000000000000000e+01 1.0000000000000000e+01
-1.0000000000000000e+01 1.0000000000000000e+01
ITEM: ATOMS id mol type x y z vx vy vz 
1 1 1 0.608526 -3.53976 -3.92744 0.277377 -1.3289 0.353891 
2 1 1 1.04143 -3.31678 -3.08453 -1.01268 0.0113176 -0.17788 
3 1 1 1.41682 -3.10002 -2.21261 -0.582461 0.992454 0.305995 
4 1 1 1.79874 -2.84693 -1.33279 -0.448573 -0.697197 1.94258 
5 1 1 2.20605 -2.53428 -0.416212 0.00538082 -0.337882 0.265858 
6 1 1 2.62379 -2.26574 0.423284 -0.0615337 0.721049 0.075948 
7 1 1 3.03796 -1.98646 1.25364 -0.168502 0.456879 -1.23947 
8 1 1 3.44906 -1.7122 2.07541 -0.38837 -0.636368 -0.482444 
9 1 1 3.85094 -1.4371 2.92301 -0.735695 -0.546671 -0.201993 
10 1 1 4.26228 -1.2054 3.7733 -2.10996 -0.399645 -0.062283 
ITEM: TIMESTEP
6000
ITEM: NUMBER OF ATOMS
10
ITEM: BOX BOUNDS pp pp pp
-1.0000000000000000e+01 1.0000000000000000e+01
-1.0000000000000000e+01 1.0000000000000000e+01
-1.0000000000000000e+01 1.0000000000000000e+01
ITEM: ATOMS id mol type x y z vx vy vz 
1 1 1 0.233873 -3.411 -3.80943 1.35458 -1.73303 0.48976 
2 1 1 0.71646 -3.20573 -2.91371 -0.167647 1.14549 0.0211268 
3 1 1 1.17157 -3.01 -2.07461 -0.314996 0.430568 0.194594 
4 1 1 1.63394 -2.80823 -1.24191 0.692096 0.448085 2.08809 
5 1 1 2.09879 -2.5732 -0.423361 0.641643 0.126299 0.157349 
6 1 1 2.62983 -2.31667 0.427185 -0.0331219 -0.271819 -0.608607 
7 1 1 3.14339 -2.07717 1.21166 1.90593 0.00476041 -1.65759 
8 1 1 3.68391 -1.82511 1.95132 -0.845221 -0.430908 0.34237 
9 1 1 4.22805 -1.52758 2.78695 1.49145 2.13389 -0.104332 
10 1 1 4.75578 -1.18996 3.56095 0.897482 -0.769719 0.456242 
ITEM: TIMESTEP
7000
ITEM: NUMBER OF ATOMS
10
ITEM: BOX BOUNDS pp pp pp
-1.0000000000000000e+01 1.0000000000000000e+01
-1.0000000000000000e+01 1.0000000000000000e+01
-1.0000000000000000e+01 1.0000000000000000e+01
ITEM: ATOMS id mol type x y z vx vy vz 
1 1 1 -0.000739064 -3.59821 -3.55151 0.578398 1.42482 -0.0244621 
2 1 1 0.535576 -3.33179 -2.82635 -1.11492 -1.32716 1.22407 
3 1 1 1.08216 -3.0569 -2.02459 1.13181 0.505594 0.806628 
4 1 1 1.58552 -2.78018 -1.24239 -1.63569 -0.342715 0.499121 
5 1 1 2.15951 -2.49566 -0.455555 0.0821389 -0.0948283 -0.726435 
6 1 1 2.70422 -2.22354 0.345389 -0.131475 0.0380607 -0.281258 
7 1 1 3.24249 -1.9605 1.14287 0.308272 0.220349 0.438767 
8 1 1 3.77965 -1.71525 1.93469 0.939633 -0.397182 -0.271812 
9 1 1 4.32712 -1.50135 2.68324 1.2279 -0.523646 -1.08261 
10 1 1 4.88008 -1.28127 3.46926 -0.788317 -0.599733 0.98837 
ITEM: TIMESTEP
8000
ITEM: NUMBER OF ATOMS
10
ITEM: BOX BOUNDS pp pp pp
-1.0000000000000000e+01 1.0000000000000000e+01
-1.0000000000000000e+01 1.0000000000000000e+01
-1.0000000000000000e+01 1.0000000000000000e+01
ITEM: ATOMS id mol type x y z vx vy vz 
1 1 1 0.514183 -3.424 -3.84537 0.772648 0.0508259 0.271007 
2 1 1 0.930826 -3.23697 -2.98895 0.440153 -0.101025 -0.363816 
3 1 1 1.36537 -3.01342 -2.13315 -0.0210593 0.107655 -0.90375 
4 1 1 1.77725 -2.77508 -1.29171 -0.972896 -0.74381 -0.185158 
5 1 1 2.1827 -2.54572 -0.465829 -0.453274 -0.644805 -0.961054 
6 1 1 2.6009 -2.31103 0.382104 -0.328376 0.509366 0.96484 
7 1 1 3.04214 -2.06013 1.21761 0.79803 -0.192276 -0.428021 
8 1 1 3.52249 -1.79427 2.0413 -0.932988 -0.0353073 0.84792 
9 1 1 3.96065 -1.53542 2.87437 0.162719 -0.807394 0.0616198 
10 1 1 4.39909 -1.24861 3.68468 0.294329 -0.788268 -0.0046324 
ITEM: TIMESTEP
9000
ITEM: NUMBER OF ATOMS
10
ITEM: BOX BOUNDS pp pp pp
-1.0000000000000000e+01 1.0000000000000000e+01
-1.0000000000000000e+01 1.0000000000000000e+01
-1.0000000000000000e+01 1.0000000000000000e+01
ITEM: ATOMS id mol type x y z vx vy vz 
1 1 1 0.277644 -4.81932 -3.16135 0.684134 -0.236804 -0.4273 
2 1 1 0.759602 -4.2867 -2.46704 0.163947 -0.719888 -2.05975 
3 1 1 1.23044 -3.77531 -1.74434 -0.866445 -0.0739282 0.975867 
4 1 1 1.70787 -3.24067 -1.03353 0.824747 -1.07555 0.0167668 
5 1 1 2.18857 -2.71338 -0.363042 0.197219 0.205141 0.104486 
6 1 1 2.6859 -2.1558 0.297704 0.43023 0.469216 0.130174 
7 1 1 3.15712 -1.57804 0.944334 1.1209 0.807322 0.946587 
8 1 1 3.63497 -0.989689 1.63669 -0.0696856 -0.848048 -0.297749 
9 1 1 4.09198 -0.45469 2.31777 -0.221578 0.576919 -0.295856 
10 1 1 4.56151 0.068958 3.04787 -0.988451 -0.793153 -0.123059 
ITEM: TIMESTEP
10000
ITEM: NUMBER OF ATOMS
10
ITEM: BOX BOUNDS pp pp pp
-1.0000000000000000e+01 1.0000000000000000e+01
-1.0000000000000000e+01 1.0000000000000000e+01
-1.0000000000000000e+01 1.0000000000000000e+01
ITEM: ATOMS id mol type x y z vx vy vz 
1 1 1 2.09512 -3.66994 -4.22638 0.442182 0.197495 0.0846222 
2 1 1 2.14103 -3.36138 -3.31413 1.2071 0.101995 -1.20328 
3 1 1 2.18852 -3.077 -2.3651 -0.599184 0.629815 -0.461256 
4 1 1 2.2381 -2.82168 -1.46838 -0.462065 0.348542 -0.408868 
5 1 1 2.32304 -2.567 -0.564895 1.25327 0.344285 0.231022 
6 1 1 2.43025 -2.27681 0.383071 -1.09046 -0.0528052 -0.110525 
7 1 1 2.54046 -1.99779 1.3565 -0.741035 -0.835301 0.675409 
8 1 1 2.65657 -1.70002 2.3073 -0.426519 -0.528885 -0.300956 
9 1 1 2.77898 -1.40404 3.22432 0.737073 0.754156 0.33601 
10 1 1 2.90354 -1.069 4.14276 -0.658615 0.201249 0.0828621 
ITEM: TIMESTEP
11000
ITEM: NUMBER OF ATOMS
10
ITEM: BOX BOUNDS pp pp pp
-1.0000000000000000e+01 1.0000000000000000e+01
-1.0000000000000000e+01 1.0000000000000000e+01
-1.0000000000000000e+01 1.0000000000000000e+01
ITEM: ATOMS id mol type x y z vx vy vz 
1 1 1 1.92591 -3.17706 -4.34441 0.993722 -1.04781 -0.030795 
2 1 1 2.02382 -2.99765 -3.38861 0.192212 0.405385 -0.84226 
3 1 1 2.12306 -2.83422 -2.43901 -1.10394 -0.494416 -0.395617 
4 1 1 2.21139 -2.68643 -1.49304 0.644311 -0.774377 -0.867542 
5 1 1 2.3306 -2.5354 -0.522736 0.438317 -0.0290404 0.0897692 
6 1 1 2.48402 -2.35843 0.436649 -0.0107292 0.252241 -0.55063 
7 1 1 2.61361 -2.15641 1.39517 0.1364 0.343037 -0.0984886 
8 1 1 2.73388 -1.95538 2.34692 -0.263888 0.701777 0.790331 
9 1 1 2.85933 -1.73504 3.27763 1.21865 -0.138109 1.18516 
10 1 1 2.98998 -1.50864 4.20649 -0.209384 -1.04377 0.977488 
ITEM: TIMESTEP
12000
ITEM: NUMBER OF ATOMS
10
ITEM: BOX BOUNDS pp pp pp
-1.0000000000000000e+01 1.0000000000000000e+01
-1.0000000000000000e+01 1.0000000000000000e+01
-1.0000000000000000e+01 1.0000000000000000e+01
ITEM: ATOMS id mol type x y z vx vy vz 
1 1 1 3.03019 -2.60548 -4.5183 -0.474624 1.05108 -1.50214 
2 1 1 2.90983 -2.59643 -3.52113 0.520969 -0.465082 -0.6875 
3 1 1 2.80111 -2.57638 -2.518 0.370548 0.220848 0.527822 
4 1 1 2.66636 -2.52387 -1.52811 -1.02393 0.525769 0.21247 
5 1 1 2.5189 -2.42762 -0.541507 -0.0468103 0.809963 0.23897 
6 1 1 2.34312 -2.35114 0.435728 -0.131075 -0.729524 -0.894399 
7 1 1 2.20126 -2.27902 1.4265 -0.276539 0.972692 0.0670294 
8 1 1 2.07969 -2.22197 2.44127 0.797093 0.0235098 1.67422 
9 1 1 1.94265 -2.18843 3.41943 0.307997 0.0107829 0.951407 
10 1 1 1.80248 -2.1743 4.37917 0.195623 0.395771 -0.684015 
ITEM: TIMESTEP
13000
ITEM: NUMBER OF ATOMS
10
ITEM: BOX BOUNDS pp pp pp
-1.0000000000000000e+01 1.0000000000000000e+01
-1.0000000000000000e+01 1.0000000000000000e+01
-1.0000000000000000e+01 1.0000000000000000e+01
ITEM: ATOMS id mol type x y z vx vy vz 
1 1 1 4.79373 -1.42655 -3.68245 -0.540515 -0.366319 0.348777 
2 1 1 4.28712 -1.67873 -2.87649 -0.216141 0.764154 0.00391214 
3 1 1 3.74977 -1.91291 -2.02879 0.822676 -0.710777 1.18019 
4 1 1 3.24324 -2.14976 -1.23124 1.09291 0.675077 -0.174306 
5 1 1 2.75533 -2.38665 -0.447166 -0.226435 0.0864414 0.509258 
6 1 1 2.2139 -2.58397 0.369495 -0.512532 0.225381 -0.538994 
7 1 1 1.64914 -2.74732 1.15279 0.61732 -0.594915 -1.76963 
8 1 1 1.10037 -2.90145 1.93488 0.619875 -0.541894 -0.0435722 
9 1 1 0.533423 -3.00543 2.74575 -1.23678 -0.800526 -0.0509122 
10 1 1 -0.0304358 -3.15191 3.53827 -1.02884 -0.455555 0.0707899 
ITEM: TIMESTEP
14000
ITEM: NUMBER OF ATOMS
10
ITEM: BOX BOUNDS pp pp pp
-1.0000000000000000e+01 1.0000000000000000e+01
-1.0000000000000000e+01 1.0000000000000000e+01
-1.0000000000000000e+01 1.0000000000000000e+01
ITEM: ATOMS id mol type x y z vx vy vz 
1 1 1 5.27772 -1.84274 -3.40478 0.11137 0.876105 -0.146789 
2 1 1 4.64709 -2.00005 -2.66946 -0.867801 0.0863814 -0.163161 
3 1 1 3.97247 -2.13164 -1.93825 0.612399 -0.924112 0.865455 
4 1 1 3.33961 -2.26251 -1.22218 -0.533487 0.645368 1.67275 
5 1 1 2.69343 -2.3861 -0.460787 -0.342246 -0.0987657 0.140706 
6 1 1 2.08278 -2.52712 0.284148 -0.051939 -0.516844 -0.326973 
7 1 1 1.47898 -2.60362 1.02401 -0.768785 0.279392 0.313576 
8 1 1 0.860949 -2.6684 1.82977 0.500342 0.0558452 -0.0278326 
9 1 1 0.269913 -2.7209 2.62568 -0.476183 0.157616 -1.01446 
10 1 1 -0.327348 -2.80159 3.4069 -0.430574 0.624611 -0.204197 
ITEM: TIMESTEP
15000
ITEM: NUMBER OF ATOMS
10
ITEM: BOX BOUNDS pp pp pp
-1.0000000000000000e+01 1.0000000000000000e+01
-1.0000000000000000e+01 1.0000000000000000e+01
-1.0000000000000000e+01 1.0000000000000000e+01
ITEM: ATOMS id mol type x y z vx vy vz 
1 1 1 5.0137 -2.13211 -3.66718 -0.441614 1.53495 1.15562 
2 1 1 4.45747 -2.18603 -2.88951 0.748889 0.0046331 1.08255 
3 1 1 3.87323 -2.26135 -2.09415 0.277045 -0.853057 -0.311594 
4 1 1 3.29664 -2.31717 -1.29656 1.07655 -2.37459 0.792528 
5 1 1 2.70916 -2.38728 -0.472805 0.0678532 -0.39905 -0.733023 
6 1 1 2.1242 -2.4358 0.34702 0.965253 0.282845 0.0175436 
7 1 1 1.54289 -2.48235 1.15301 -0.0485195 0.0757812 0.243804 
8 1 1 0.973389 -2.51998 1.97144 -0.337428 0.873632 0.970426 
9 1 1 0.417708 -2.57896 2.8055 0.937195 0.362595 -1.35869 
10 1 1 -0.112797 -2.64363 3.61828 0.93785 -0.510689 -0.436854 
ITEM: TIMESTEP
16000
ITEM: NUMBER OF ATOMS
10
ITEM: BOX BOUNDS pp pp pp
-1.0000000000000000e+01 1.0000000000000000e+01
-1.0000000000000000e+01 1.0000000000000000e+01
-1.0000000000000000e+01 1.0000000000000000e+01
ITEM: ATOMS id mol type x y z vx vy vz 
1 1 1 3.6697 -1.20589 -4.12167 0.274802 -0.370256 0.904343 
2 1 1 3.40229 -1.49864 -3.18973 -1.11134 -0.00823875 -0.213719 
3 1 1 3.10342 -1.78295 -2.29614 -0.553163 1.2387 -0.224603 
4 1 1 2.8284 -2.02926 -1.40466 -0.83334 -0.41072 -0.157019 
5 1 1 2.53072 -2.28136 -0.466356 1.03396 0.27693 -0.0777311 
6 1 1 2.26215 -2.55694 0.414213 0.742924 -0.576054 -0.422002 
7 1 1 1.99982 -2.80673 1.27833 0.162847 0.0303016 -0.571922 
8 1 1 1.76257 -3.04493 2.17002 -0.6613 0.359203 -0.995583 
9 1 1 1.49409 -3.26557 3.07885 1.22572 0.500452 -1.04413 
10 1 1 1.24243 -3.47237 4.01221 -0.587629 0.466848 -0.278635 
ITEM: TIMESTEP
17000
ITEM: NUMBER OF ATOMS
10
ITEM: BOX BOUNDS pp pp pp
-1.0000000000000000e+01 1.0000000000000000e+01
-1.0000000000000000e+01 1.0000000000000000e+01
-1.0000000000000000e+01 1.0000000000000000e+01
ITEM: ATOMS id mol type x y z vx vy vz 
1 1 1 4.28462 -0.549719 -3.71918 -0.0306645 0.386977 1.07952 
2 1 1 3.86426 -0.986952 -2.86544 -0.339826 0.387546 -0.697588 
3 1 1 3.44372 -1.40372 -2.06372 0.758398 -0.260596 -0.75317 
4 1 1 3.00804 -1.80826 -1.24184 1.00174 0.386225 -0.10843 
5 1 1 2.59682 -2.18978 -0.45434 -0.157415 1.07086 1.94967 
6 1 1 2.19126 -2.60091 0.326879 1.39053 0.0563452 0.558193 
7 1 1 1.79163 -3.01497 1.13875 0.156247 1.43721 0.132488 
8 1 1 1.41638 -3.41443 1.9624 0.910135 -0.470915 -1.75788 
9 1 1 1.05731 -3.79209 2.76187 -0.173579 -0.917944 0.277888 
10 1 1 0.641548 -4.18383 3.62969 0.495655 -1.13271 0.265599 
ITEM: TIMESTEP
18000
ITEM: NUMBER OF ATOMS
10
ITEM: BOX BOUNDS pp pp pp
-1.0000000000000000e+01 1.0000000000000000e+01
-1.0000000000000000e+01 1.0000000000000000e+01
-1.0000000000000000e+01 1.0000000000000000e+01
ITEM: ATOMS id mol type x y z vx vy vz 
1 1 1 4.80722 -1.32145 -3.61723 0.086825 -0.379775 -0.271957 
2 1 1 4.26577 -1.57497 -2.78428 0.0291395 -0.618886 -0.517813 
3 1 1 3.76206 -1.81381 -2.01403 0.561884 -0.082845 -0.0454942 
4 1 1 3.23263 -2.03332 -1.22232 0.0986017 -0.508726 -0.778683 
5 1 1 2.7068 -2.27536 -0.419522 -0.380617 0.407057 0.222683 
6 1 1 2.20153 -2.50382 0.352125 -0.0506128 -0.226748 0.473769 
7 1 1 1.64727 -2.73072 1.09867 0.751946 0.257548 -0.756679 
8 1 1 1.07974 -2.99375 1.8968 -0.0469138 1.14291 0.251516 
9 1 1 0.545576 -3.23088 2.67972 0.421032 0.552681 -1.06649 
10 1 1 0.046991 -3.46658 3.50512 -0.148275 0.563208 1.5142 
ITEM: TIMESTEP
19000
ITEM: NUMBER OF ATOMS
10
ITEM: BOX BOUNDS pp pp pp
-1.0000000000000000e+01 1.0000000000000000e+01
-1.0000000000000000e+01 1.0000000000000000e+01
-1.0000000000000000e+01 1.0000000000000000e+01
ITEM: ATOMS id mol type x y z vx vy vz 
1 1 1 5.03253 -1.21548 -3.44917 0.11536 -0.797655 0.545965 
2 1 1 4.45158 -1.44481 -2.67612 -0.681963 0.743021 0.318775 
3 1 1 3.87309 -1.686 -1.93977 0.0712641 0.259199 0.348045 
4 1 1 3.3014 -1.96802 -1.178 0.0678556 -0.195096 -1.81182 
5 1 1 2.72929 -2.23121 -0.441442 -0.649572 -0.908989 -0.135954 
6 1 1 2.14047 -2.48166 0.315448 1.7183 0.569599 0.155979 
7 1 1 1.55283 -2.78776 1.07213 -1.26681 0.227959 -0.17198 
8 1 1 0.965469 -3.07112 1.82678 1.04212 1.16955 0.362264 
9 1 1 0.397994 -3.36719 2.57508 -1.09218 -0.349644 -0.44135 
10 1 1 -0.149052 -3.69142 3.37012 0.505307 1.16561 -0.968062 
ITEM: TIMESTEP
20000
ITEM: NUMBER OF ATOMS
10
ITEM: BOX BOUNDS pp pp pp
-1.0000000000000000e+01 1.0000000000000000e+01
-1.0000000000000000e+01 1.0000000000000000e+01
-1.0000000000000000e+01 1.0000000000000000e+01
ITEM: ATOMS id mol type x y z vx vy vz 
1 1 1 4.80946 -1.51489 -3.70069 0.020794 -0.423441 -0.384448 
2 1 1 4.30379 -1.72299 -2.88073 0.98968 0.00875826 -0.501222 
3 1 1 3.78474 -1.91288 -2.05596 0.731943 -0.401954 -0.284822 
4 1 1 3.22916 -2.13047 -1.20978 -0.433292 -0.801145 -0.443801 
5 1 1 2.68443 -2.3339 -0.429216 0.0802266 0.49523 -0.671733 
6 1 1 2.16491 -2.52501 0.349778 0.060447 -0.0727697 -0.0953681 
7 1 1 1.61585 -2.71796 1.18042 -0.160136 0.0313921 0.618712 
8 1 1 1.07138 -2.85855 1.96175 2.73272 0.463437 -0.418307 
9 1 1 0.555165 -3.02115 2.72809 -0.564343 0.574776 0.0665185 
10 1 1 0.0767069 -3.20686 3.53139 -0.763303 0.606566 0.37594 
