LAMMPS nunchunk data file 

10  atoms          
9  bonds          
8  angles         
0  dihedrals      
0  impropers    

1 atom types     
1  bond types     
1  angle types    
0  dihedral types 
0  improper types 

-10.000000 10.000000 xlo xhi  
-10.000000 10.000000 ylo yhi  
-10.000000 10.000000 zlo zhi  

Masses

	 1  1.0 


Atoms #position generated by nunchunks

	 1 1 1 1.207694809820432 -2.549778911535392 -4.286998522547725 0 0 0 
	 2 1 1 1.479220381939064 -2.515264859294191 -3.345997649071222 0 0 0 
	 3 1 1 1.7507459540576957 -2.48075080705299 -2.4049967755947192 0 0 0 
	 4 1 1 2.0222715261763273 -2.446236754811789 -1.4639959021182163 0 0 0 
	 5 1 1 2.2937970982949594 -2.411722702570588 -0.5229950286417138 0 0 0 
	 6 1 1 2.565322670413591 -2.377208650329387 0.41800584483478964 0 0 0 
	 7 1 1 2.8368482425322226 -2.342694598088186 1.3590067183112922 0 0 0 
	 8 1 1 3.108373814650854 -2.308180545846985 2.300007591787794 0 0 0 
	 9 1 1 3.379899386769486 -2.273666493605784 3.241008465264297 0 0 0 
	 10 1 1 3.651424958888118 -2.239152441364583 4.1820093387408 0 0 0 


Bonds 

	 1 1 1 2 
	 2 1 2 3 
	 3 1 3 4 
	 4 1 4 5 
	 5 1 5 6 
	 6 1 6 7 
	 7 1 7 8 
	 8 1 8 9 
	 9 1 9 10 


Angles 

	 1 1 1 2 3 
	 2 1 2 3 4 
	 3 1 3 4 5 
	 4 1 4 5 6 
	 5 1 5 6 7 
	 6 1 6 7 8 
	 7 1 7 8 9 
	 8 1 8 9 10 


#N.B can turn into two molecules by changing the molecule ID of some atoms, and removing bonds between the two molecules