ITEM: TIMESTEP
0
ITEM: NUMBER OF ATOMS
900
ITEM: BOX BOUNDS pp pp pp
0.0000000000000000e+00 3.0000000000000000e+02
0.0000000000000000e+00 3.0000000000000000e+02
-5.0000000000000000e+00 5.0000000000000000e+00
ITEM: ATOMS id type xs ys zs
1 1 0 0 0.5
2 1 0.0333333 0 0.5
3 1 0.0666667 0 0.5
4 1 0.1 0 0.5
5 1 0.133333 0 0.5
6 1 0.166667 0 0.5
7 1 0.2 0 0.5
8 1 0.233333 0 0.5
9 1 0.266667 0 0.5
10 1 0.3 0 0.5
11 1 0.333333 0 0.5
12 1 0.366667 0 0.5
13 1 0.4 0 0.5
14 1 0.433333 0 0.5
15 1 0.466667 0 0.5
16 1 0.5 0 0.5
17 1 0.533333 0 0.5
18 1 0.566667 0 0.5
19 1 0.6 0 0.5
20 1 0.633333 0 0.5
21 1 0.666667 0 0.5
22 1 0.7 0 0.5
23 1 0.733333 0 0.5
24 1 0.766667 0 0.5
25 1 0.8 0 0.5
26 1 0.833333 0 0.5
27 1 0.866667 0 0.5
28 1 0.9 0 0.5
29 1 0.933333 0 0.5
30 1 0.966667 0 0.5
31 1 0 0.0333333 0.5
32 1 0.0333333 0.0333333 0.5
33 1 0.0666667 0.0333333 0.5
34 1 0.1 0.0333333 0.5
35 1 0.133333 0.0333333 0.5
36 1 0.166667 0.0333333 0.5
37 1 0.2 0.0333333 0.5
38 1 0.233333 0.0333333 0.5
39 1 0.266667 0.0333333 0.5
40 1 0.3 0.0333333 0.5
41 1 0.333333 0.0333333 0.5
42 1 0.366667 0.0333333 0.5
43 1 0.4 0.0333333 0.5
44 1 0.433333 0.0333333 0.5
45 1 0.466667 0.0333333 0.5
46 1 0.5 0.0333333 0.5
47 1 0.533333 0.0333333 0.5
48 1 0.566667 0.0333333 0.5
49 1 0.6 0.0333333 0.5
50 1 0.633333 0.0333333 0.5
51 1 0.666667 0.0333333 0.5
52 1 0.7 0.0333333 0.5
53 1 0.733333 0.0333333 0.5
54 1 0.766667 0.0333333 0.5
55 1 0.8 0.0333333 0.5
56 1 0.833333 0.0333333 0.5
57 1 0.866667 0.0333333 0.5
58 1 0.9 0.0333333 0.5
59 1 0.933333 0.0333333 0.5
60 1 0.966667 0.0333333 0.5
61 1 0 0.0666667 0.5
62 1 0.0333333 0.0666667 0.5
63 1 0.0666667 0.0666667 0.5
64 1 0.1 0.0666667 0.5
65 1 0.133333 0.0666667 0.5
66 1 0.166667 0.0666667 0.5
67 1 0.2 0.0666667 0.5
68 1 0.233333 0.0666667 0.5
69 1 0.266667 0.0666667 0.5
70 1 0.3 0.0666667 0.5
71 1 0.333333 0.0666667 0.5
72 1 0.366667 0.0666667 0.5
73 1 0.4 0.0666667 0.5
74 1 0.433333 0.0666667 0.5
75 1 0.466667 0.0666667 0.5
76 1 0.5 0.0666667 0.5
77 1 0.533333 0.0666667 0.5
78 1 0.566667 0.0666667 0.5
79 1 0.6 0.0666667 0.5
80 1 0.633333 0.0666667 0.5
81 1 0.666667 0.0666667 0.5
82 1 0.7 0.0666667 0.5
83 1 0.733333 0.0666667 0.5
84 1 0.766667 0.0666667 0.5
85 1 0.8 0.0666667 0.5
86 1 0.833333 0.0666667 0.5
87 1 0.866667 0.0666667 0.5
88 1 0.9 0.0666667 0.5
89 1 0.933333 0.0666667 0.5
90 1 0.966667 0.0666667 0.5
91 1 0 0.1 0.5
92 1 0.0333333 0.1 0.5
93 1 0.0666667 0.1 0.5
94 1 0.1 0.1 0.5
95 1 0.133333 0.1 0.5
96 1 0.166667 0.1 0.5
97 1 0.2 0.1 0.5
98 1 0.233333 0.1 0.5
99 1 0.266667 0.1 0.5
100 1 0.3 0.1 0.5
101 1 0.333333 0.1 0.5
102 1 0.366667 0.1 0.5
103 1 0.4 0.1 0.5
104 1 0.433333 0.1 0.5
105 1 0.466667 0.1 0.5
106 1 0.5 0.1 0.5
107 1 0.533333 0.1 0.5
108 1 0.566667 0.1 0.5
109 1 0.6 0.1 0.5
110 1 0.633333 0.1 0.5
111 1 0.666667 0.1 0.5
112 1 0.7 0.1 0.5
113 1 0.733333 0.1 0.5
114 1 0.766667 0.1 0.5
115 1 0.8 0.1 0.5
116 1 0.833333 0.1 0.5
117 1 0.866667 0.1 0.5
118 1 0.9 0.1 0.5
119 1 0.933333 0.1 0.5
120 1 0.966667 0.1 0.5
121 1 0 0.133333 0.5
122 1 0.0333333 0.133333 0.5
123 1 0.0666667 0.133333 0.5
124 1 0.1 0.133333 0.5
125 1 0.133333 0.133333 0.5
126 1 0.166667 0.133333 0.5
127 1 0.2 0.133333 0.5
128 1 0.233333 0.133333 0.5
129 1 0.266667 0.133333 0.5
130 1 0.3 0.133333 0.5
131 1 0.333333 0.133333 0.5
132 1 0.366667 0.133333 0.5
133 1 0.4 0.133333 0.5
134 1 0.433333 0.133333 0.5
135 1 0.466667 0.133333 0.5
136 1 0.5 0.133333 0.5
137 1 0.533333 0.133333 0.5
138 1 0.566667 0.133333 0.5
139 1 0.6 0.133333 0.5
140 1 0.633333 0.133333 0.5
141 1 0.666667 0.133333 0.5
142 1 0.7 0.133333 0.5
143 1 0.733333 0.133333 0.5
144 1 0.766667 0.133333 0.5
145 1 0.8 0.133333 0.5
146 1 0.833333 0.133333 0.5
147 1 0.866667 0.133333 0.5
148 1 0.9 0.133333 0.5
149 1 0.933333 0.133333 0.5
150 1 0.966667 0.133333 0.5
151 1 0 0.166667 0.5
152 1 0.0333333 0.166667 0.5
153 1 0.0666667 0.166667 0.5
154 1 0.1 0.166667 0.5
155 1 0.133333 0.166667 0.5
156 1 0.166667 0.166667 0.5
157 1 0.2 0.166667 0.5
158 1 0.233333 0.166667 0.5
159 1 0.266667 0.166667 0.5
160 1 0.3 0.166667 0.5
161 1 0.333333 0.166667 0.5
162 1 0.366667 0.166667 0.5
163 1 0.4 0.166667 0.5
164 1 0.433333 0.166667 0.5
165 1 0.466667 0.166667 0.5
166 1 0.5 0.166667 0.5
167 1 0.533333 0.166667 0.5
168 1 0.566667 0.166667 0.5
169 1 0.6 0.166667 0.5
170 1 0.633333 0.166667 0.5
171 1 0.666667 0.166667 0.5
172 1 0.7 0.166667 0.5
173 1 0.733333 0.166667 0.5
174 1 0.766667 0.166667 0.5
175 1 0.8 0.166667 0.5
176 1 0.833333 0.166667 0.5
177 1 0.866667 0.166667 0.5
178 1 0.9 0.166667 0.5
179 1 0.933333 0.166667 0.5
180 1 0.966667 0.166667 0.5
181 1 0 0.2 0.5
182 1 0.0333333 0.2 0.5
183 1 0.0666667 0.2 0.5
184 1 0.1 0.2 0.5
185 1 0.133333 0.2 0.5
186 1 0.166667 0.2 0.5
187 1 0.2 0.2 0.5
188 1 0.233333 0.2 0.5
189 1 0.266667 0.2 0.5
190 1 0.3 0.2 0.5
191 1 0.333333 0.2 0.5
192 1 0.366667 0.2 0.5
193 1 0.4 0.2 0.5
194 1 0.433333 0.2 0.5
195 1 0.466667 0.2 0.5
196 1 0.5 0.2 0.5
197 1 0.533333 0.2 0.5
198 1 0.566667 0.2 0.5
199 1 0.6 0.2 0.5
200 1 0.633333 0.2 0.5
201 1 0.666667 0.2 0.5
202 1 0.7 0.2 0.5
203 1 0.733333 0.2 0.5
204 1 0.766667 0.2 0.5
205 1 0.8 0.2 0.5
206 1 0.833333 0.2 0.5
207 1 0.866667 0.2 0.5
208 1 0.9 0.2 0.5
209 1 0.933333 0.2 0.5
210 1 0.966667 0.2 0.5
211 1 0 0.233333 0.5
212 1 0.0333333 0.233333 0.5
213 1 0.0666667 0.233333 0.5
214 1 0.1 0.233333 0.5
215 1 0.133333 0.233333 0.5
216 1 0.166667 0.233333 0.5
217 1 0.2 0.233333 0.5
218 1 0.233333 0.233333 0.5
219 1 0.266667 0.233333 0.5
220 1 0.3 0.233333 0.5
221 1 0.333333 0.233333 0.5
222 1 0.366667 0.233333 0.5
223 1 0.4 0.233333 0.5
224 1 0.433333 0.233333 0.5
225 1 0.466667 0.233333 0.5
226 1 0.5 0.233333 0.5
227 1 0.533333 0.233333 0.5
228 1 0.566667 0.233333 0.5
229 1 0.6 0.233333 0.5
230 1 0.633333 0.233333 0.5
231 1 0.666667 0.233333 0.5
232 1 0.7 0.233333 0.5
233 1 0.733333 0.233333 0.5
234 1 0.766667 0.233333 0.5
235 1 0.8 0.233333 0.5
236 1 0.833333 0.233333 0.5
237 1 0.866667 0.233333 0.5
238 1 0.9 0.233333 0.5
239 1 0.933333 0.233333 0.5
240 1 0.966667 0.233333 0.5
241 1 0 0.266667 0.5
242 1 0.0333333 0.266667 0.5
243 1 0.0666667 0.266667 0.5
244 1 0.1 0.266667 0.5
245 1 0.133333 0.266667 0.5
246 1 0.166667 0.266667 0.5
247 1 0.2 0.266667 0.5
248 1 0.233333 0.266667 0.5
249 1 0.266667 0.266667 0.5
250 1 0.3 0.266667 0.5
251 1 0.333333 0.266667 0.5
252 1 0.366667 0.266667 0.5
253 1 0.4 0.266667 0.5
254 1 0.433333 0.266667 0.5
255 1 0.466667 0.266667 0.5
256 1 0.5 0.266667 0.5
257 1 0.533333 0.266667 0.5
258 1 0.566667 0.266667 0.5
259 1 0.6 0.266667 0.5
260 1 0.633333 0.266667 0.5
261 1 0.666667 0.266667 0.5
262 1 0.7 0.266667 0.5
263 1 0.733333 0.266667 0.5
264 1 0.766667 0.266667 0.5
265 1 0.8 0.266667 0.5
266 1 0.833333 0.266667 0.5
267 1 0.866667 0.266667 0.5
268 1 0.9 0.266667 0.5
269 1 0.933333 0.266667 0.5
270 1 0.966667 0.266667 0.5
271 1 0 0.3 0.5
272 1 0.0333333 0.3 0.5
273 1 0.0666667 0.3 0.5
274 1 0.1 0.3 0.5
275 1 0.133333 0.3 0.5
276 1 0.166667 0.3 0.5
277 1 0.2 0.3 0.5
278 1 0.233333 0.3 0.5
279 1 0.266667 0.3 0.5
280 1 0.3 0.3 0.5
281 1 0.333333 0.3 0.5
282 1 0.366667 0.3 0.5
283 1 0.4 0.3 0.5
284 1 0.433333 0.3 0.5
285 1 0.466667 0.3 0.5
286 1 0.5 0.3 0.5
287 1 0.533333 0.3 0.5
288 1 0.566667 0.3 0.5
289 1 0.6 0.3 0.5
290 1 0.633333 0.3 0.5
291 1 0.666667 0.3 0.5
292 1 0.7 0.3 0.5
293 1 0.733333 0.3 0.5
294 1 0.766667 0.3 0.5
295 1 0.8 0.3 0.5
296 1 0.833333 0.3 0.5
297 1 0.866667 0.3 0.5
298 1 0.9 0.3 0.5
299 1 0.933333 0.3 0.5
300 1 0.966667 0.3 0.5
301 1 0 0.333333 0.5
302 1 0.0333333 0.333333 0.5
303 1 0.0666667 0.333333 0.5
304 1 0.1 0.333333 0.5
305 1 0.133333 0.333333 0.5
306 1 0.166667 0.333333 0.5
307 1 0.2 0.333333 0.5
308 1 0.233333 0.333333 0.5
309 1 0.266667 0.333333 0.5
310 1 0.3 0.333333 0.5
311 1 0.333333 0.333333 0.5
312 1 0.366667 0.333333 0.5
313 1 0.4 0.333333 0.5
314 1 0.433333 0.333333 0.5
315 1 0.466667 0.333333 0.5
316 1 0.5 0.333333 0.5
317 1 0.533333 0.333333 0.5
318 1 0.566667 0.333333 0.5
319 1 0.6 0.333333 0.5
320 1 0.633333 0.333333 0.5
321 1 0.666667 0.333333 0.5
322 1 0.7 0.333333 0.5
323 1 0.733333 0.333333 0.5
324 1 0.766667 0.333333 0.5
325 1 0.8 0.333333 0.5
326 1 0.833333 0.333333 0.5
327 1 0.866667 0.333333 0.5
328 1 0.9 0.333333 0.5
329 1 0.933333 0.333333 0.5
330 1 0.966667 0.333333 0.5
331 1 0 0.366667 0.5
332 1 0.0333333 0.366667 0.5
333 1 0.0666667 0.366667 0.5
334 1 0.1 0.366667 0.5
335 1 0.133333 0.366667 0.5
336 1 0.166667 0.366667 0.5
337 1 0.2 0.366667 0.5
338 1 0.233333 0.366667 0.5
339 1 0.266667 0.366667 0.5
340 1 0.3 0.366667 0.5
341 1 0.333333 0.366667 0.5
342 1 0.366667 0.366667 0.5
343 1 0.4 0.366667 0.5
344 1 0.433333 0.366667 0.5
345 1 0.466667 0.366667 0.5
346 1 0.5 0.366667 0.5
347 1 0.533333 0.366667 0.5
348 1 0.566667 0.366667 0.5
349 1 0.6 0.366667 0.5
350 1 0.633333 0.366667 0.5
351 1 0.666667 0.366667 0.5
352 1 0.7 0.366667 0.5
353 1 0.733333 0.366667 0.5
354 1 0.766667 0.366667 0.5
355 1 0.8 0.366667 0.5
356 1 0.833333 0.366667 0.5
357 1 0.866667 0.366667 0.5
358 1 0.9 0.366667 0.5
359 1 0.933333 0.366667 0.5
360 1 0.966667 0.366667 0.5
361 1 0 0.4 0.5
362 1 0.0333333 0.4 0.5
363 1 0.0666667 0.4 0.5
364 1 0.1 0.4 0.5
365 1 0.133333 0.4 0.5
366 1 0.166667 0.4 0.5
367 1 0.2 0.4 0.5
368 1 0.233333 0.4 0.5
369 1 0.266667 0.4 0.5
370 1 0.3 0.4 0.5
371 1 0.333333 0.4 0.5
372 1 0.366667 0.4 0.5
373 1 0.4 0.4 0.5
374 1 0.433333 0.4 0.5
375 1 0.466667 0.4 0.5
376 1 0.5 0.4 0.5
377 1 0.533333 0.4 0.5
378 1 0.566667 0.4 0.5
379 1 0.6 0.4 0.5
380 1 0.633333 0.4 0.5
381 1 0.666667 0.4 0.5
382 1 0.7 0.4 0.5
383 1 0.733333 0.4 0.5
384 1 0.766667 0.4 0.5
385 1 0.8 0.4 0.5
386 1 0.833333 0.4 0.5
387 1 0.866667 0.4 0.5
388 1 0.9 0.4 0.5
389 1 0.933333 0.4 0.5
390 1 0.966667 0.4 0.5
391 1 0 0.433333 0.5
392 1 0.0333333 0.433333 0.5
393 1 0.0666667 0.433333 0.5
394 1 0.1 0.433333 0.5
395 1 0.133333 0.433333 0.5
396 1 0.166667 0.433333 0.5
397 1 0.2 0.433333 0.5
398 1 0.233333 0.433333 0.5
399 1 0.266667 0.433333 0.5
400 1 0.3 0.433333 0.5
401 1 0.333333 0.433333 0.5
402 1 0.366667 0.433333 0.5
403 1 0.4 0.433333 0.5
404 1 0.433333 0.433333 0.5
405 1 0.466667 0.433333 0.5
406 1 0.5 0.433333 0.5
407 1 0.533333 0.433333 0.5
408 1 0.566667 0.433333 0.5
409 1 0.6 0.433333 0.5
410 1 0.633333 0.433333 0.5
411 1 0.666667 0.433333 0.5
412 1 0.7 0.433333 0.5
413 1 0.733333 0.433333 0.5
414 1 0.766667 0.433333 0.5
415 1 0.8 0.433333 0.5
416 1 0.833333 0.433333 0.5
417 1 0.866667 0.433333 0.5
418 1 0.9 0.433333 0.5
419 1 0.933333 0.433333 0.5
420 1 0.966667 0.433333 0.5
421 1 0 0.466667 0.5
422 1 0.0333333 0.466667 0.5
423 1 0.0666667 0.466667 0.5
424 1 0.1 0.466667 0.5
425 1 0.133333 0.466667 0.5
426 1 0.166667 0.466667 0.5
427 1 0.2 0.466667 0.5
428 1 0.233333 0.466667 0.5
429 1 0.266667 0.466667 0.5
430 1 0.3 0.466667 0.5
431 1 0.333333 0.466667 0.5
432 1 0.366667 0.466667 0.5
433 1 0.4 0.466667 0.5
434 1 0.433333 0.466667 0.5
435 1 0.466667 0.466667 0.5
436 1 0.5 0.466667 0.5
437 1 0.533333 0.466667 0.5
438 1 0.566667 0.466667 0.5
439 1 0.6 0.466667 0.5
440 1 0.633333 0.466667 0.5
441 1 0.666667 0.466667 0.5
442 1 0.7 0.466667 0.5
443 1 0.733333 0.466667 0.5
444 1 0.766667 0.466667 0.5
445 1 0.8 0.466667 0.5
446 1 0.833333 0.466667 0.5
447 1 0.866667 0.466667 0.5
448 1 0.9 0.466667 0.5
449 1 0.933333 0.466667 0.5
450 1 0.966667 0.466667 0.5
451 1 0 0.5 0.5
452 1 0.0333333 0.5 0.5
453 1 0.0666667 0.5 0.5
454 1 0.1 0.5 0.5
455 1 0.133333 0.5 0.5
456 1 0.166667 0.5 0.5
457 1 0.2 0.5 0.5
458 1 0.233333 0.5 0.5
459 1 0.266667 0.5 0.5
460 1 0.3 0.5 0.5
461 1 0.333333 0.5 0.5
462 1 0.366667 0.5 0.5
463 1 0.4 0.5 0.5
464 1 0.433333 0.5 0.5
465 1 0.466667 0.5 0.5
466 1 0.5 0.5 0.5
467 1 0.533333 0.5 0.5
468 1 0.566667 0.5 0.5
469 1 0.6 0.5 0.5
470 1 0.633333 0.5 0.5
471 1 0.666667 0.5 0.5
472 1 0.7 0.5 0.5
473 1 0.733333 0.5 0.5
474 1 0.766667 0.5 0.5
475 1 0.8 0.5 0.5
476 1 0.833333 0.5 0.5
477 1 0.866667 0.5 0.5
478 1 0.9 0.5 0.5
479 1 0.933333 0.5 0.5
480 1 0.966667 0.5 0.5
481 1 0 0.533333 0.5
482 1 0.0333333 0.533333 0.5
483 1 0.0666667 0.533333 0.5
484 1 0.1 0.533333 0.5
485 1 0.133333 0.533333 0.5
486 1 0.166667 0.533333 0.5
487 1 0.2 0.533333 0.5
488 1 0.233333 0.533333 0.5
489 1 0.266667 0.533333 0.5
490 1 0.3 0.533333 0.5
491 1 0.333333 0.533333 0.5
492 1 0.366667 0.533333 0.5
493 1 0.4 0.533333 0.5
494 1 0.433333 0.533333 0.5
495 1 0.466667 0.533333 0.5
496 1 0.5 0.533333 0.5
497 1 0.533333 0.533333 0.5
498 1 0.566667 0.533333 0.5
499 1 0.6 0.533333 0.5
500 1 0.633333 0.533333 0.5
501 1 0.666667 0.533333 0.5
502 1 0.7 0.533333 0.5
503 1 0.733333 0.533333 0.5
504 1 0.766667 0.533333 0.5
505 1 0.8 0.533333 0.5
506 1 0.833333 0.533333 0.5
507 1 0.866667 0.533333 0.5
508 1 0.9 0.533333 0.5
509 1 0.933333 0.533333 0.5
510 1 0.966667 0.533333 0.5
511 1 0 0.566667 0.5
512 1 0.0333333 0.566667 0.5
513 1 0.0666667 0.566667 0.5
514 1 0.1 0.566667 0.5
515 1 0.133333 0.566667 0.5
516 1 0.166667 0.566667 0.5
517 1 0.2 0.566667 0.5
518 1 0.233333 0.566667 0.5
519 1 0.266667 0.566667 0.5
520 1 0.3 0.566667 0.5
521 1 0.333333 0.566667 0.5
522 1 0.366667 0.566667 0.5
523 1 0.4 0.566667 0.5
524 1 0.433333 0.566667 0.5
525 1 0.466667 0.566667 0.5
526 1 0.5 0.566667 0.5
527 1 0.533333 0.566667 0.5
528 1 0.566667 0.566667 0.5
529 1 0.6 0.566667 0.5
530 1 0.633333 0.566667 0.5
531 1 0.666667 0.566667 0.5
532 1 0.7 0.566667 0.5
533 1 0.733333 0.566667 0.5
534 1 0.766667 0.566667 0.5
535 1 0.8 0.566667 0.5
536 1 0.833333 0.566667 0.5
537 1 0.866667 0.566667 0.5
538 1 0.9 0.566667 0.5
539 1 0.933333 0.566667 0.5
540 1 0.966667 0.566667 0.5
541 1 0 0.6 0.5
542 1 0.0333333 0.6 0.5
543 1 0.0666667 0.6 0.5
544 1 0.1 0.6 0.5
545 1 0.133333 0.6 0.5
546 1 0.166667 0.6 0.5
547 1 0.2 0.6 0.5
548 1 0.233333 0.6 0.5
549 1 0.266667 0.6 0.5
550 1 0.3 0.6 0.5
551 1 0.333333 0.6 0.5
552 1 0.366667 0.6 0.5
553 1 0.4 0.6 0.5
554 1 0.433333 0.6 0.5
555 1 0.466667 0.6 0.5
556 1 0.5 0.6 0.5
557 1 0.533333 0.6 0.5
558 1 0.566667 0.6 0.5
559 1 0.6 0.6 0.5
560 1 0.633333 0.6 0.5
561 1 0.666667 0.6 0.5
562 1 0.7 0.6 0.5
563 1 0.733333 0.6 0.5
564 1 0.766667 0.6 0.5
565 1 0.8 0.6 0.5
566 1 0.833333 0.6 0.5
567 1 0.866667 0.6 0.5
568 1 0.9 0.6 0.5
569 1 0.933333 0.6 0.5
570 1 0.966667 0.6 0.5
571 1 0 0.633333 0.5
572 1 0.0333333 0.633333 0.5
573 1 0.0666667 0.633333 0.5
574 1 0.1 0.633333 0.5
575 1 0.133333 0.633333 0.5
576 1 0.166667 0.633333 0.5
577 1 0.2 0.633333 0.5
578 1 0.233333 0.633333 0.5
579 1 0.266667 0.633333 0.5
580 1 0.3 0.633333 0.5
581 1 0.333333 0.633333 0.5
582 1 0.366667 0.633333 0.5
583 1 0.4 0.633333 0.5
584 1 0.433333 0.633333 0.5
585 1 0.466667 0.633333 0.5
586 1 0.5 0.633333 0.5
587 1 0.533333 0.633333 0.5
588 1 0.566667 0.633333 0.5
589 1 0.6 0.633333 0.5
590 1 0.633333 0.633333 0.5
591 1 0.666667 0.633333 0.5
592 1 0.7 0.633333 0.5
593 1 0.733333 0.633333 0.5
594 1 0.766667 0.633333 0.5
595 1 0.8 0.633333 0.5
596 1 0.833333 0.633333 0.5
597 1 0.866667 0.633333 0.5
598 1 0.9 0.633333 0.5
599 1 0.933333 0.633333 0.5
600 1 0.966667 0.633333 0.5
601 1 0 0.666667 0.5
602 1 0.0333333 0.666667 0.5
603 1 0.0666667 0.666667 0.5
604 1 0.1 0.666667 0.5
605 1 0.133333 0.666667 0.5
606 1 0.166667 0.666667 0.5
607 1 0.2 0.666667 0.5
608 1 0.233333 0.666667 0.5
609 1 0.266667 0.666667 0.5
610 1 0.3 0.666667 0.5
611 1 0.333333 0.666667 0.5
612 1 0.366667 0.666667 0.5
613 1 0.4 0.666667 0.5
614 1 0.433333 0.666667 0.5
615 1 0.466667 0.666667 0.5
616 1 0.5 0.666667 0.5
617 1 0.533333 0.666667 0.5
618 1 0.566667 0.666667 0.5
619 1 0.6 0.666667 0.5
620 1 0.633333 0.666667 0.5
621 1 0.666667 0.666667 0.5
622 1 0.7 0.666667 0.5
623 1 0.733333 0.666667 0.5
624 1 0.766667 0.666667 0.5
625 1 0.8 0.666667 0.5
626 1 0.833333 0.666667 0.5
627 1 0.866667 0.666667 0.5
628 1 0.9 0.666667 0.5
629 1 0.933333 0.666667 0.5
630 1 0.966667 0.666667 0.5
631 1 0 0.7 0.5
632 1 0.0333333 0.7 0.5
633 1 0.0666667 0.7 0.5
634 1 0.1 0.7 0.5
635 1 0.133333 0.7 0.5
636 1 0.166667 0.7 0.5
637 1 0.2 0.7 0.5
638 1 0.233333 0.7 0.5
639 1 0.266667 0.7 0.5
640 1 0.3 0.7 0.5
641 1 0.333333 0.7 0.5
642 1 0.366667 0.7 0.5
643 1 0.4 0.7 0.5
644 1 0.433333 0.7 0.5
645 1 0.466667 0.7 0.5
646 1 0.5 0.7 0.5
647 1 0.533333 0.7 0.5
648 1 0.566667 0.7 0.5
649 1 0.6 0.7 0.5
650 1 0.633333 0.7 0.5
651 1 0.666667 0.7 0.5
652 1 0.7 0.7 0.5
653 1 0.733333 0.7 0.5
654 1 0.766667 0.7 0.5
655 1 0.8 0.7 0.5
656 1 0.833333 0.7 0.5
657 1 0.866667 0.7 0.5
658 1 0.9 0.7 0.5
659 1 0.933333 0.7 0.5
660 1 0.966667 0.7 0.5
661 1 0 0.733333 0.5
662 1 0.0333333 0.733333 0.5
663 1 0.0666667 0.733333 0.5
664 1 0.1 0.733333 0.5
665 1 0.133333 0.733333 0.5
666 1 0.166667 0.733333 0.5
667 1 0.2 0.733333 0.5
668 1 0.233333 0.733333 0.5
669 1 0.266667 0.733333 0.5
670 1 0.3 0.733333 0.5
671 1 0.333333 0.733333 0.5
672 1 0.366667 0.733333 0.5
673 1 0.4 0.733333 0.5
674 1 0.433333 0.733333 0.5
675 1 0.466667 0.733333 0.5
676 1 0.5 0.733333 0.5
677 1 0.533333 0.733333 0.5
678 1 0.566667 0.733333 0.5
679 1 0.6 0.733333 0.5
680 1 0.633333 0.733333 0.5
681 1 0.666667 0.733333 0.5
682 1 0.7 0.733333 0.5
683 1 0.733333 0.733333 0.5
684 1 0.766667 0.733333 0.5
685 1 0.8 0.733333 0.5
686 1 0.833333 0.733333 0.5
687 1 0.866667 0.733333 0.5
688 1 0.9 0.733333 0.5
689 1 0.933333 0.733333 0.5
690 1 0.966667 0.733333 0.5
691 1 0 0.766667 0.5
692 1 0.0333333 0.766667 0.5
693 1 0.0666667 0.766667 0.5
694 1 0.1 0.766667 0.5
695 1 0.133333 0.766667 0.5
696 1 0.166667 0.766667 0.5
697 1 0.2 0.766667 0.5
698 1 0.233333 0.766667 0.5
699 1 0.266667 0.766667 0.5
700 1 0.3 0.766667 0.5
701 1 0.333333 0.766667 0.5
702 1 0.366667 0.766667 0.5
703 1 0.4 0.766667 0.5
704 1 0.433333 0.766667 0.5
705 1 0.466667 0.766667 0.5
706 1 0.5 0.766667 0.5
707 1 0.533333 0.766667 0.5
708 1 0.566667 0.766667 0.5
709 1 0.6 0.766667 0.5
710 1 0.633333 0.766667 0.5
711 1 0.666667 0.766667 0.5
712 1 0.7 0.766667 0.5
713 1 0.733333 0.766667 0.5
714 1 0.766667 0.766667 0.5
715 1 0.8 0.766667 0.5
716 1 0.833333 0.766667 0.5
717 1 0.866667 0.766667 0.5
718 1 0.9 0.766667 0.5
719 1 0.933333 0.766667 0.5
720 1 0.966667 0.766667 0.5
721 1 0 0.8 0.5
722 1 0.0333333 0.8 0.5
723 1 0.0666667 0.8 0.5
724 1 0.1 0.8 0.5
725 1 0.133333 0.8 0.5
726 1 0.166667 0.8 0.5
727 1 0.2 0.8 0.5
728 1 0.233333 0.8 0.5
729 1 0.266667 0.8 0.5
730 1 0.3 0.8 0.5
731 1 0.333333 0.8 0.5
732 1 0.366667 0.8 0.5
733 1 0.4 0.8 0.5
734 1 0.433333 0.8 0.5
735 1 0.466667 0.8 0.5
736 1 0.5 0.8 0.5
737 1 0.533333 0.8 0.5
738 1 0.566667 0.8 0.5
739 1 0.6 0.8 0.5
740 1 0.633333 0.8 0.5
741 1 0.666667 0.8 0.5
742 1 0.7 0.8 0.5
743 1 0.733333 0.8 0.5
744 1 0.766667 0.8 0.5
745 1 0.8 0.8 0.5
746 1 0.833333 0.8 0.5
747 1 0.866667 0.8 0.5
748 1 0.9 0.8 0.5
749 1 0.933333 0.8 0.5
750 1 0.966667 0.8 0.5
751 1 0 0.833333 0.5
752 1 0.0333333 0.833333 0.5
753 1 0.0666667 0.833333 0.5
754 1 0.1 0.833333 0.5
755 1 0.133333 0.833333 0.5
756 1 0.166667 0.833333 0.5
757 1 0.2 0.833333 0.5
758 1 0.233333 0.833333 0.5
759 1 0.266667 0.833333 0.5
760 1 0.3 0.833333 0.5
761 1 0.333333 0.833333 0.5
762 1 0.366667 0.833333 0.5
763 1 0.4 0.833333 0.5
764 1 0.433333 0.833333 0.5
765 1 0.466667 0.833333 0.5
766 1 0.5 0.833333 0.5
767 1 0.533333 0.833333 0.5
768 1 0.566667 0.833333 0.5
769 1 0.6 0.833333 0.5
770 1 0.633333 0.833333 0.5
771 1 0.666667 0.833333 0.5
772 1 0.7 0.833333 0.5
773 1 0.733333 0.833333 0.5
774 1 0.766667 0.833333 0.5
775 1 0.8 0.833333 0.5
776 1 0.833333 0.833333 0.5
777 1 0.866667 0.833333 0.5
778 1 0.9 0.833333 0.5
779 1 0.933333 0.833333 0.5
780 1 0.966667 0.833333 0.5
781 1 0 0.866667 0.5
782 1 0.0333333 0.866667 0.5
783 1 0.0666667 0.866667 0.5
784 1 0.1 0.866667 0.5
785 1 0.133333 0.866667 0.5
786 1 0.166667 0.866667 0.5
787 1 0.2 0.866667 0.5
788 1 0.233333 0.866667 0.5
789 1 0.266667 0.866667 0.5
790 1 0.3 0.866667 0.5
791 1 0.333333 0.866667 0.5
792 1 0.366667 0.866667 0.5
793 1 0.4 0.866667 0.5
794 1 0.433333 0.866667 0.5
795 1 0.466667 0.866667 0.5
796 1 0.5 0.866667 0.5
797 1 0.533333 0.866667 0.5
798 1 0.566667 0.866667 0.5
799 1 0.6 0.866667 0.5
800 1 0.633333 0.866667 0.5
801 1 0.666667 0.866667 0.5
802 1 0.7 0.866667 0.5
803 1 0.733333 0.866667 0.5
804 1 0.766667 0.866667 0.5
805 1 0.8 0.866667 0.5
806 1 0.833333 0.866667 0.5
807 1 0.866667 0.866667 0.5
808 1 0.9 0.866667 0.5
809 1 0.933333 0.866667 0.5
810 1 0.966667 0.866667 0.5
811 1 0 0.9 0.5
812 1 0.0333333 0.9 0.5
813 1 0.0666667 0.9 0.5
814 1 0.1 0.9 0.5
815 1 0.133333 0.9 0.5
816 1 0.166667 0.9 0.5
817 1 0.2 0.9 0.5
818 1 0.233333 0.9 0.5
819 1 0.266667 0.9 0.5
820 1 0.3 0.9 0.5
821 1 0.333333 0.9 0.5
822 1 0.366667 0.9 0.5
823 1 0.4 0.9 0.5
824 1 0.433333 0.9 0.5
825 1 0.466667 0.9 0.5
826 1 0.5 0.9 0.5
827 1 0.533333 0.9 0.5
828 1 0.566667 0.9 0.5
829 1 0.6 0.9 0.5
830 1 0.633333 0.9 0.5
831 1 0.666667 0.9 0.5
832 1 0.7 0.9 0.5
833 1 0.733333 0.9 0.5
834 1 0.766667 0.9 0.5
835 1 0.8 0.9 0.5
836 1 0.833333 0.9 0.5
837 1 0.866667 0.9 0.5
838 1 0.9 0.9 0.5
839 1 0.933333 0.9 0.5
840 1 0.966667 0.9 0.5
841 1 0 0.933333 0.5
842 1 0.0333333 0.933333 0.5
843 1 0.0666667 0.933333 0.5
844 1 0.1 0.933333 0.5
845 1 0.133333 0.933333 0.5
846 1 0.166667 0.933333 0.5
847 1 0.2 0.933333 0.5
848 1 0.233333 0.933333 0.5
849 1 0.266667 0.933333 0.5
850 1 0.3 0.933333 0.5
851 1 0.333333 0.933333 0.5
852 1 0.366667 0.933333 0.5
853 1 0.4 0.933333 0.5
854 1 0.433333 0.933333 0.5
855 1 0.466667 0.933333 0.5
856 1 0.5 0.933333 0.5
857 1 0.533333 0.933333 0.5
858 1 0.566667 0.933333 0.5
859 1 0.6 0.933333 0.5
860 1 0.633333 0.933333 0.5
861 1 0.666667 0.933333 0.5
862 1 0.7 0.933333 0.5
863 1 0.733333 0.933333 0.5
864 1 0.766667 0.933333 0.5
865 1 0.8 0.933333 0.5
866 1 0.833333 0.933333 0.5
867 1 0.866667 0.933333 0.5
868 1 0.9 0.933333 0.5
869 1 0.933333 0.933333 0.5
870 1 0.966667 0.933333 0.5
871 1 0 0.966667 0.5
872 1 0.0333333 0.966667 0.5
873 1 0.0666667 0.966667 0.5
874 1 0.1 0.966667 0.5
875 1 0.133333 0.966667 0.5
876 1 0.166667 0.966667 0.5
877 1 0.2 0.966667 0.5
878 1 0.233333 0.966667 0.5
879 1 0.266667 0.966667 0.5
880 1 0.3 0.966667 0.5
881 1 0.333333 0.966667 0.5
882 1 0.366667 0.966667 0.5
883 1 0.4 0.966667 0.5
884 1 0.433333 0.966667 0.5
885 1 0.466667 0.966667 0.5
886 1 0.5 0.966667 0.5
887 1 0.533333 0.966667 0.5
888 1 0.566667 0.966667 0.5
889 1 0.6 0.966667 0.5
890 1 0.633333 0.966667 0.5
891 1 0.666667 0.966667 0.5
892 1 0.7 0.966667 0.5
893 1 0.733333 0.966667 0.5
894 1 0.766667 0.966667 0.5
895 1 0.8 0.966667 0.5
896 1 0.833333 0.966667 0.5
897 1 0.866667 0.966667 0.5
898 1 0.9 0.966667 0.5
899 1 0.933333 0.966667 0.5
900 1 0.966667 0.966667 0.5
ITEM: TIMESTEP
1000
ITEM: NUMBER OF ATOMS
900
ITEM: BOX BOUNDS pp pp pp
-7.2236996823197899e+00 3.0722369968231965e+02
-7.2236996823197899e+00 3.0722369968231965e+02
-5.0000000000000000e+00 5.0000000000000000e+00
ITEM: ATOMS id type xs ys zs
872 1 0.0176553 0.000811757 0.5
37 1 0.172468 0.00327044 0.5
20 1 0.641891 0.00298049 0.5
22 1 0.68157 0.00087449 0.5
893 1 0.706356 0.000545584 0.5
58 1 0.905874 0.00204667 0.5
35 1 0.114702 0.0102692 0.5
9 1 0.285849 0.0105952 0.5
42 1 0.362376 0.00696278 0.5
16 1 0.480206 0.0073161 0.5
11 1 0.349017 0.011734 0.5
59 1 0.939971 0.0150154 0.5
3 1 0.103191 0.0174569 0.5
5 1 0.130383 0.0212496 0.5
17 1 0.528118 0.0179358 0.5
53 1 0.725499 0.0170347 0.5
60 1 0.992468 0.0211432 0.5
34 1 0.0956098 0.0250455 0.5
43 1 0.366524 0.0267082 0.5
18 1 0.592797 0.0250888 0.5
32 1 0.0419779 0.0315251 0.5
36 1 0.175931 0.0291681 0.5
40 1 0.282442 0.0311597 0.5
21 1 0.673915 0.0302289 0.5
54 1 0.796583 0.0283818 0.5
29 1 0.921126 0.0308497 0.5
30 1 0.934514 0.0312071 0.5
62 1 0.00567828 0.0374009 0.5
15 1 0.433817 0.0353373 0.5
45 1 0.48055 0.035181 0.5
48 1 0.559789 0.0362846 0.5
80 1 0.67072 0.0348652 0.5
72 1 0.380232 0.0408504 0.5
47 1 0.55974 0.0405001 0.5
79 1 0.58761 0.0421403 0.5
49 1 0.623966 0.0405774 0.5
51 1 0.647167 0.0405255 0.5
82 1 0.726972 0.0420935 0.5
61 1 0.0278299 0.0500189 0.5
31 1 0.0367719 0.0459943 0.5
66 1 0.150356 0.0487251 0.5
70 1 0.285324 0.0487172 0.5
78 1 0.556974 0.0499285 0.5
55 1 0.769169 0.0483614 0.5
56 1 0.807443 0.0483363 0.5
44 1 0.414482 0.0511237 0.5
84 1 0.758148 0.0511484 0.5
86 1 0.831711 0.0512689 0.5
33 1 0.0340873 0.0561922 0.5
68 1 0.200064 0.0668511 0.5
39 1 0.229373 0.065897 0.5
46 1 0.513504 0.0643636 0.5
77 1 0.522667 0.0643939 0.5
83 1 0.742175 0.0640152 0.5
113 1 0.772389 0.0643023 0.5
57 1 0.840337 0.0655304 0.5
87 1 0.853801 0.0647998 0.5
96 1 0.157693 0.0708321 0.5
69 1 0.28124 0.0712729 0.5
101 1 0.3135 0.0725665 0.5
41 1 0.319677 0.0708586 0.5
50 1 0.631388 0.0674079 0.5
115 1 0.782114 0.0700926 0.5
91 1 0.974441 0.0708199 0.5
65 1 0.100524 0.0778143 0.5
108 1 0.539075 0.0737631 0.5
110 1 0.656054 0.0767713 0.5
85 1 0.792778 0.0753664 0.5
120 1 0.984931 0.0751724 0.5
67 1 0.177966 0.0786816 0.5
75 1 0.43225 0.0830764 0.5
81 1 0.70525 0.0828509 0.5
112 1 0.709633 0.0820833 0.5
89 1 0.958879 0.0789258 0.5
63 1 0.0523925 0.0838668 0.5
73 1 0.382843 0.0847214 0.5
116 1 0.855993 0.0847077 0.5
117 1 0.85904 0.0869972 0.5
119 1 0.916009 0.0853397 0.5
90 1 0.00181748 0.0933078 0.5
93 1 0.0712063 0.0924537 0.5
64 1 0.0938622 0.0928286 0.5
94 1 0.130021 0.0902298 0.5
102 1 0.383277 0.0945792 0.5
92 1 0.0534011 0.0969393 0.5
100 1 0.283101 0.0988475 0.5
99 1 0.297512 0.0959259 0.5
71 1 0.355148 0.099581 0.5
74 1 0.422705 0.0970274 0.5
111 1 0.688543 0.0961956 0.5
88 1 0.890043 0.0995089 0.5
122 1 0.0436152 0.10062 0.5
125 1 0.160668 0.104273 0.5
128 1 0.24732 0.103234 0.5
133 1 0.421458 0.102728 0.5
76 1 0.463448 0.103596 0.5
104 1 0.460217 0.10549 0.5
109 1 0.601363 0.104559 0.5
118 1 0.913089 0.105173 0.5
103 1 0.372475 0.109869 0.5
97 1 0.168894 0.11235 0.5
98 1 0.254616 0.117069 0.5
129 1 0.262651 0.115995 0.5
149 1 0.929199 0.114479 0.5
127 1 0.178539 0.120129 0.5
105 1 0.436388 0.119578 0.5
106 1 0.493403 0.120788 0.5
114 1 0.749881 0.117486 0.5
148 1 0.877079 0.120038 0.5
95 1 0.128486 0.123292 0.5
137 1 0.56892 0.125179 0.5
146 1 0.840118 0.127998 0.5
150 1 0.984999 0.124365 0.5
180 1 0.00337364 0.129491 0.5
132 1 0.333581 0.131202 0.5
138 1 0.536031 0.132374 0.5
107 1 0.541297 0.129481 0.5
175 1 0.779327 0.133671 0.5
121 1 0.988298 0.133703 0.5
130 1 0.297865 0.137325 0.5
136 1 0.527208 0.134387 0.5
168 1 0.564281 0.134707 0.5
145 1 0.825293 0.135173 0.5
123 1 0.047293 0.144458 0.5
126 1 0.130106 0.142062 0.5
163 1 0.436503 0.141236 0.5
164 1 0.444722 0.141306 0.5
140 1 0.635684 0.140991 0.5
171 1 0.69567 0.145186 0.5
172 1 0.702053 0.144629 0.5
174 1 0.764713 0.142708 0.5
147 1 0.861873 0.140539 0.5
177 1 0.882307 0.144622 0.5
131 1 0.36039 0.150822 0.5
134 1 0.468976 0.145855 0.5
143 1 0.757135 0.150795 0.5
151 1 0.0112564 0.15362 0.5
124 1 0.0809377 0.161258 0.5
160 1 0.266937 0.157598 0.5
165 1 0.452483 0.159401 0.5
135 1 0.479418 0.158966 0.5
139 1 0.604468 0.156905 0.5
154 1 0.114898 0.1651 0.5
162 1 0.383185 0.162999 0.5
142 1 0.721906 0.163881 0.5
204 1 0.756398 0.166949 0.5
144 1 0.78968 0.166852 0.5
152 1 0.0687348 0.171452 0.5
155 1 0.13101 0.171504 0.5
156 1 0.141368 0.170887 0.5
158 1 0.261046 0.172234 0.5
169 1 0.601074 0.171803 0.5
141 1 0.665522 0.171143 0.5
194 1 0.444185 0.173211 0.5
201 1 0.670928 0.173966 0.5
173 1 0.717635 0.177028 0.5
176 1 0.860418 0.178299 0.5
178 1 0.876593 0.173446 0.5
208 1 0.886959 0.178515 0.5
184 1 0.0848038 0.180991 0.5
189 1 0.23796 0.181182 0.5
167 1 0.562943 0.181067 0.5
179 1 0.901438 0.182163 0.5
181 1 0.0344749 0.189247 0.5
157 1 0.219798 0.186972 0.5
198 1 0.602243 0.186004 0.5
170 1 0.663297 0.18538 0.5
210 1 0.96807 0.187871 0.5
159 1 0.277811 0.193522 0.5
161 1 0.357861 0.193381 0.5
166 1 0.536479 0.190598 0.5
199 1 0.617092 0.192458 0.5
183 1 0.0708432 0.199038 0.5
153 1 0.101358 0.19616 0.5
188 1 0.202355 0.197603 0.5
195 1 0.430923 0.200793 0.5
196 1 0.463732 0.196235 0.5
205 1 0.77034 0.198937 0.5
207 1 0.88679 0.197133 0.5
221 1 0.305489 0.202042 0.5
235 1 0.77303 0.205798 0.5
217 1 0.166366 0.208039 0.5
192 1 0.337837 0.207069 0.5
239 1 0.930807 0.20833 0.5
190 1 0.271649 0.213896 0.5
193 1 0.399968 0.213135 0.5
228 1 0.603668 0.216336 0.5
231 1 0.667234 0.213728 0.5
234 1 0.765177 0.212986 0.5
238 1 0.907978 0.217602 0.5
240 1 0.949631 0.217236 0.5
213 1 0.0998145 0.220136 0.5
226 1 0.527023 0.220813 0.5
197 1 0.559633 0.218073 0.5
200 1 0.606345 0.222179 0.5
202 1 0.691406 0.220895 0.5
203 1 0.767032 0.221916 0.5
206 1 0.864738 0.220357 0.5
209 1 0.922819 0.220556 0.5
182 1 0.0295645 0.223541 0.5
187 1 0.231819 0.229026 0.5
191 1 0.354592 0.22784 0.5
185 1 0.162461 0.230977 0.5
251 1 0.322063 0.229536 0.5
222 1 0.395233 0.229629 0.5
262 1 0.713558 0.230404 0.5
219 1 0.255615 0.239538 0.5
227 1 0.529362 0.236818 0.5
257 1 0.534996 0.238939 0.5
230 1 0.649301 0.236007 0.5
265 1 0.779984 0.239957 0.5
237 1 0.864871 0.23909 0.5
214 1 0.137731 0.244658 0.5
186 1 0.171288 0.24106 0.5
218 1 0.198638 0.245438 0.5
225 1 0.459747 0.243584 0.5
255 1 0.493276 0.241794 0.5
215 1 0.148301 0.249663 0.5
246 1 0.196313 0.250654 0.5
223 1 0.412966 0.246758 0.5
232 1 0.732243 0.248347 0.5
211 1 0.025606 0.253204 0.5
241 1 0.0370332 0.254916 0.5
243 1 0.0856641 0.254489 0.5
220 1 0.268578 0.255079 0.5
236 1 0.795432 0.254383 0.5
267 1 0.863011 0.25642 0.5
216 1 0.164427 0.257853 0.5
248 1 0.254953 0.261876 0.5
270 1 0.942033 0.262452 0.5
242 1 0.0199573 0.266051 0.5
244 1 0.138984 0.265026 0.5
247 1 0.167484 0.264914 0.5
276 1 0.189258 0.264118 0.5
233 1 0.72017 0.266818 0.5
212 1 0.0372512 0.269837 0.5
274 1 0.0853191 0.271828 0.5
254 1 0.406175 0.26972 0.5
224 1 0.419584 0.27008 0.5
229 1 0.587164 0.271721 0.5
300 1 0.957979 0.271068 0.5
245 1 0.158319 0.274668 0.5
249 1 0.272523 0.276127 0.5
250 1 0.294496 0.274128 0.5
279 1 0.300481 0.279268 0.5
285 1 0.505608 0.279278 0.5
288 1 0.605755 0.276253 0.5
268 1 0.863673 0.278526 0.5
269 1 0.952119 0.275689 0.5
259 1 0.62696 0.279702 0.5
264 1 0.779141 0.279758 0.5
297 1 0.832244 0.2847 0.5
277 1 0.166689 0.289979 0.5
282 1 0.384525 0.288458 0.5
287 1 0.519342 0.287606 0.5
294 1 0.740755 0.286678 0.5
271 1 0.971569 0.287951 0.5
302 1 0.0448729 0.295164 0.5
310 1 0.27867 0.296014 0.5
280 1 0.291206 0.293643 0.5
281 1 0.327295 0.292565 0.5
252 1 0.366553 0.292735 0.5
260 1 0.641929 0.292955 0.5
256 1 0.464386 0.297061 0.5
258 1 0.551595 0.301122 0.5