LAMMPS (3 Mar 2020)
OMP_NUM_THREADS environment is not set. Defaulting to 1 thread. (../comm.cpp:94)
  using 1 OpenMP thread(s) per MPI task
# My test script

# INITIALISATION
units		lj
atom_style	sphere
dimension	2  #gives dimensionality of simulation

# SYSTEM DEFINITION
lattice		sq 0.01 #square unit cell with edge length = 0.01
Lattice spacing in x,y,z = 10 10 10
region		mybox block 0 30 0 30 -0.5 0.5 #changed ID from box to mybox to avoid confusion, gives xi min and max
create_box	1 mybox #changed ID from box to mybox, uses 1 atom types
Created orthogonal box = (0 0 -5) to (300 300 5)
  1 by 1 by 1 MPI processor grid
create_atoms	1 box #atoms of type 1 created in region on lattice points
Created 900 atoms
  create_atoms CPU = 0 secs
#N.B 'box' is correct in the line above; it specifies placement on lattic points

# SIMULATION SETTINGS
set		type 1 mass 1
  900 settings made for mass

velocity	all create 1.44 87287 loop geom
#all particles are allocated random velocities for T = 1.44. geom is a type of looping

# multi neighbor and comm for efficiency

neighbor	1 multi #This sets parameters for building pairwise neighbor lists
neigh_modify	delay 0 #No delay on building new neighbour lists
comm_modify     mode multi #affects inter-processor communication of atom information

# pair-wise interaction potential
#pair_style	none
pair_style lj/cut 2.5 #cut-off at 2.5
pair_coeff * * 1 1 #energy, distance units


fix		1 all npt temp 2.0 2.0 1.0 iso 0.0 1.0 10.0 drag 1.0 	        mtk no pchain 0 tchain 1
#Constant n,P,T compression at T = 2, from P = 0 to 1, no mkt adjustment, original thermostat

dump		1 all atom 1000 dump.2Dsphere

dump		3 all movie 1000 2Dsphere.mpg type type #		zoom 1.5 center d 0.5 0.5 0.5
#dump_modify	3 pad 5 adiam 1 5.0

thermo_style	custom step temp epair etotal press vol
#output timestep, temperature, pairwise energy, total energy, pressure, volume
thermo		1000  #output thermodynamic variables every 1000 timesteps

timestep	0.005
#size of timestep in given time units

run		50000
Neighbor list info ...
  update every 1 steps, delay 0 steps, check yes
  max neighbors/atom: 2000, page size: 100000
  master list distance cutoff = 3.5
  ghost atom cutoff = 3.5
  binsize = 1.75, bins = 172 172 6
  1 neighbor lists, perpetual/occasional/extra = 1 0 0
  (1) pair lj/cut, perpetual
      attributes: half, newton on
      pair build: half/multi/newton
      stencil: half/multi/2d/newton
      bin: standard
Per MPI rank memory allocation (min/avg/max) = 5.721 | 5.721 | 5.721 Mbytes
Step Temp E_pair TotEng Press Volume 
       0         1.44            0       1.4384     0.014384        90000 
    1000    1.9611049 -0.015636314    1.9432896  0.017654515    98877.167 
    2000    2.0721556 -0.019519773    2.0503335  0.019274647    95941.383 
    3000    2.1870711 -0.025235436    2.1594056  0.029024082    68039.115 
    4000    2.1801037 -0.023067208    2.1546142  0.049058361    42260.823 
    5000    2.1490653 -0.057902241    2.0887752  0.072840502    28034.648 
    6000    2.1060196 -0.095819101    2.0078605   0.09457643    20888.052 
    7000    2.0893341   -0.1237979    1.9632147    0.1147954    16997.554 
    8000    2.0548137  -0.13129885    1.9212317   0.13703697    14587.749 
    9000    2.0486012  -0.14784481    1.8984802   0.14391455     12816.45 
   10000    2.0529449  -0.17122417    1.8794397    0.1664525    11441.219 
   11000     2.054676  -0.19595592    1.8564371   0.18794921    10332.372 
   12000    2.0455769  -0.20774489    1.8355591   0.19569209    9389.0649 
   13000    2.0334166  -0.21680281    1.8143544   0.22275739     8577.455 
   14000    2.0479454   -0.2460016    1.7996683   0.23624436    7922.4811 
   15000    2.0496971  -0.27959833    1.7678214   0.26587771    7384.8422 
   16000    2.0415418  -0.28682855    1.7524449    0.2931477    6925.7861 
   17000    2.0352412  -0.30219061    1.7307892   0.29313629    6510.3274 
   18000    2.0121641  -0.29786679    1.7120616   0.35352564    6115.5669 
   19000    2.0181242  -0.32159701    1.6942849   0.35766019    5782.3724 
   20000    2.0340945  -0.37417242     1.657662   0.35978202     5490.371 
   21000    2.0121595   -0.3607134    1.6492104   0.41212122    5227.4251 
   22000    2.0380317  -0.41551872    1.6202485   0.39687978    5001.2928 
   23000    2.0353373  -0.41392959    1.6191463   0.45995078    4793.0357 
   24000    2.0265682  -0.44284354    1.5814729   0.47881533    4614.4804 
   25000    2.0393385  -0.45219667    1.5848759   0.49579359    4451.8848 
   26000    2.0153181  -0.45541295    1.5576659   0.48253889    4297.8714 
   27000    2.0453569  -0.51090284    1.5321814   0.46388313    4164.1904 
   28000    2.0206467  -0.51232739    1.5060742   0.51097488    4039.4125 
   29000    2.0378636  -0.53539148    1.5002078   0.54704327    3924.5201 
   30000    2.0276326  -0.54641239    1.4789673   0.55399293    3809.3969 
   31000    1.9890618  -0.51438326    1.4724685   0.69107595    3695.0486 
   32000    2.0091442  -0.54543486    1.4614769   0.70249692    3597.7812 
   33000     2.010548  -0.57133394    1.4369802   0.65923827    3490.6715 
   34000    2.0256598  -0.58985863    1.4335505   0.65684045     3412.265 
   35000    2.0101323  -0.59850971    1.4093891   0.67711229    3343.7045 
   36000    2.0128577  -0.58955462    1.4210666   0.77709915    3270.4412 
   37000    2.0257704  -0.62407066    1.3994489   0.76145354    3191.5734 
   38000    1.9919039  -0.61565785    1.3740328   0.76498059    3134.0778 
   39000    2.0360667  -0.66282058    1.3709838   0.75166249    3084.5914 
   40000    2.0174391  -0.65489242    1.3603051   0.73546152    3018.0788 
   41000    2.0265284   -0.6789508    1.3453259   0.84410612    2955.2837 
   42000    2.0063206  -0.69231731     1.311774   0.79369295    2905.1603 
   43000    2.0431686  -0.74155218    1.2993462   0.79282399    2854.0807 
   44000    2.0540665  -0.74195139    1.3098328    0.8309242    2798.4599 
   45000    2.0253707  -0.72887172    1.2942486   0.82663966    2750.0644 
   46000    2.0124454  -0.72988997    1.2803194   0.93182317    2704.0234 
   47000    2.0308265  -0.75238695    1.2761831   0.94914152    2661.3584 
   48000    2.0071956  -0.77287067    1.2320947   0.91417606    2635.1607 
   49000    2.0205884  -0.76514027     1.253203   0.95374664    2600.5815 
   50000    1.9767556  -0.76574866    1.2088105    1.0838998    2571.5196 
Loop time of 6.23877 on 1 procs for 50000 steps with 900 atoms

Performance: 3462221.443 tau/day, 8014.401 timesteps/s
85.7% CPU use with 1 MPI tasks x 1 OpenMP threads

MPI task timing breakdown:
Section |  min time  |  avg time  |  max time  |%varavg| %total
---------------------------------------------------------------
Pair    | 2.0262     | 2.0262     | 2.0262     |   0.0 | 32.48
Neigh   | 0.39389    | 0.39389    | 0.39389    |   0.0 |  6.31
Comm    | 0.10586    | 0.10586    | 0.10586    |   0.0 |  1.70
Output  | 0.38957    | 0.38957    | 0.38957    |   0.0 |  6.24
Modify  | 3.1246     | 3.1246     | 3.1246     |   0.0 | 50.08
Other   |            | 0.1986     |            |       |  3.18

Nlocal:    900 ave 900 max 900 min
Histogram: 1 0 0 0 0 0 0 0 0 0
Nghost:    298 ave 298 max 298 min
Histogram: 1 0 0 0 0 0 0 0 0 0
Neighs:    5979 ave 5979 max 5979 min
Histogram: 1 0 0 0 0 0 0 0 0 0

Total # of neighbors = 5979
Ave neighs/atom = 6.64333
Neighbor list builds = 3108
Dangerous builds = 0
