LAMMPS nunchunk data file 

10000  atoms          
9000  bonds          
8000  angles         
0  dihedrals      
0  impropers    

10 atom types     
9  bond types     
8  angle types    
0  dihedral types 
0  improper types 

-50.000000 50.000000 xlo xhi  
-150.000000 150.000000 ylo yhi  
-50.000000 50.000000 zlo zhi  

Masses

	 1  1.0 
	 2  1.0 
	 3  1.0 
	 4  1.0 
	 5  1.0 
	 6  1.0 
	 7  1.0 
	 8  1.0 
	 9  1.0 
	 10 1.0 

Atoms 

	 1 1 1 -11.21518894773379 -113.93924035073346 7.155896235637826 0 0 0 
	 2 1 2 -12.031596426909852 -113.87143479600226 7.6937449454930995 0 0 0 
	 3 1 3 -12.848003906085914 -113.80362924127107 8.231593655348373 0 0 0 
	 4 1 4 -13.664411385261978 -113.73582368653987 8.769442365203647 0 0 0 
	 5 1 5 -14.48081886443804 -113.66801813180868 9.30729107505892 0 0 0 
	 6 1 6 -15.297226343614103 -113.60021257707749 9.845139784914194 0 0 0 
	 7 1 7 -16.113633822790163 -113.53240702234629 10.382988494769467 0 0 0 
	 8 1 8 -16.930041301966227 -113.4646014676151 10.920837204624739 0 0 0 
	 9 1 9 -17.74644878114229 -113.3967959128839 11.458685914480014 0 0 0 
	 10 1 10 -18.562856260318352 -113.32899035815271 11.996534624335288 0 0 0 
	 11 2 1 -16.793867625444058 114.57484292134943 -24.11745789068931 0 0 0 
	 12 2 2 -17.54433999919777 114.94996722512974 -24.62388949806172 0 0 0 
	 13 2 3 -18.294812372951483 115.32509152891005 -25.130321105434128 0 0 0 
	 14 2 4 -19.0452847467052 115.70021583269038 -25.636752712806533 0 0 0 
	 15 2 5 -19.795757120458912 116.07534013647069 -26.143184320178943 0 0 0 
	 16 2 6 -20.546229494212625 116.450464440251 -26.649615927551352 0 0 0 
	 17 2 7 -21.29670186796634 116.82558874403131 -27.15604753492376 0 0 0 
	 18 2 8 -22.04717424172005 117.20071304781162 -27.66247914229617 0 0 0 
	 19 2 9 -22.797646615473766 117.57583735159194 -28.16891074966858 0 0 0 
	 20 2 10 -23.548118989227483 117.95096165537225 -28.67534235704099 0 0 0 
	 21 3 1 32.813805352279736 90.46957506561375 -36.88151887077377 0 0 0 
	 22 3 2 32.36486546392719 90.18642107388307 -36.057700448053694 0 0 0 
	 23 3 3 31.915925575574647 89.9032670821524 -35.23388202533363 0 0 0 
	 24 3 4 31.466985687222103 89.62011309042171 -34.410063602613555 0 0 0 
	 25 3 5 31.018045798869554 89.33695909869104 -33.58624517989348 0 0 0 
	 26 3 6 30.56910591051701 89.05380510696035 -32.76242675717341 0 0 0 
	 27 3 7 30.120166022164465 88.77065111522967 -31.93860833445334 0 0 0 
	 28 3 8 29.67122613381192 88.487497123499 -31.11478991173327 0 0 0 
	 29 3 9 29.222286245459376 88.20434313176831 -30.290971489013195 0 0 0 
	 30 3 10 28.77334635710683 87.92118914003764 -29.467153066293122 0 0 0 
	 31 4 1 -35.84516198987572 -67.63492162363764 7.854093233850923 0 0 0 
	 32 4 2 -36.00501397248348 -67.48149243088737 8.808717152715504 0 0 0 
	 33 4 3 -36.16486595509125 -67.3280632381371 9.763341071580083 0 0 0 
	 34 4 4 -36.32471793769901 -67.17463404538684 10.717964990444663 0 0 0 
	 35 4 5 -36.484569920306775 -67.02120485263657 11.672588909309244 0 0 0 
	 36 4 6 -36.644421902914544 -66.8677756598863 12.627212828173823 0 0 0 
	 37 4 7 -36.804273885522306 -66.71434646713604 13.581836747038402 0 0 0 
	 38 4 8 -36.96412586813007 -66.56091727438576 14.536460665902982 0 0 0 
	 39 4 9 -37.12397785073783 -66.40748808163549 15.491084584767563 0 0 0 
	 40 4 10 -37.2838298333456 -66.25405888888523 16.445708503632144 0 0 0 
	 41 5 1 -34.516819849489764 -13.143871719104405 -13.90692895057838 0 0 0 
	 42 5 2 -35.453553236843476 -13.040959946317265 -13.637968492446253 0 0 0 
	 43 5 3 -36.390286624197195 -12.938048173530127 -13.369008034314126 0 0 0 
	 44 5 4 -37.32702001155091 -12.835136400742988 -13.100047576182 0 0 0 
	 45 5 5 -38.263753398904626 -12.732224627955848 -12.831087118049874 0 0 0 
	 46 5 6 -39.20048678625834 -12.629312855168708 -12.562126659917746 0 0 0 
	 47 5 7 -40.13722017361205 -12.52640108238157 -12.29316620178562 0 0 0 
	 48 5 8 -41.07395356096577 -12.42348930959443 -12.024205743653495 0 0 0 
	 49 5 9 -42.01068694831948 -12.320577536807292 -11.755245285521369 0 0 0 
	 50 5 10 -42.9474203356732 -12.217665764020152 -11.486284827389241 0 0 0 
	 51 6 1 -8.030711720408112 139.72868509692077 -6.857321420019558 0 0 0 
	 52 6 2 -7.508862025227804 139.02455567283016 -6.418830086273884 0 0 0 
	 53 6 3 -6.987012330047496 138.32042624873958 -5.98033875252821 0 0 0 
	 54 6 4 -6.4651626348671885 137.61629682464897 -5.541847418782536 0 0 0 
	 55 6 5 -5.94331293968688 136.91216740055836 -5.103356085036863 0 0 0 
	 56 6 6 -5.4214632445065725 136.20803797646778 -4.664864751291187 0 0 0 
	 57 6 7 -4.899613549326265 135.50390855237717 -4.226373417545514 0 0 0 
	 58 6 8 -4.377763854145957 134.79977912828656 -3.78788208379984 0 0 0 
	 59 6 9 -3.855914158965649 134.09564970419598 -3.349390750054167 0 0 0 
	 60 6 10 -3.3340644637853405 133.39152028010537 -2.9108994163084922 0 0 0 
	 61 7 1 26.964975285737825 144.4527419103284 -40.084986457570615 0 0 0 
	 62 7 2 26.167708299103758 144.40855714844233 -40.653152858232 0 0 0 
	 63 7 3 25.370441312469694 144.36437238655628 -41.221319258893374 0 0 0 
	 64 7 4 24.57317432583563 144.3201876246702 -41.78948565955476 0 0 0 
	 65 7 5 23.775907339201563 144.27600286278414 -42.35765206021614 0 0 0 
	 66 7 6 22.978640352567496 144.2318181008981 -42.92581846087752 0 0 0 
	 67 7 7 22.181373365933432 144.18763333901202 -43.493984861538905 0 0 0 
	 68 7 8 21.384106379299368 144.14344857712598 -44.06215126220028 0 0 0 
	 69 7 9 20.5868393926653 144.0992638152399 -44.630317662861664 0 0 0 
	 70 7 10 19.789572406031233 144.05507905335384 -45.19848406352305 0 0 0 
	 71 8 1 -35.48741835974339 -133.8734475566064 -1.917107911790883 0 0 0 
	 72 8 2 -34.91255750000254 -134.63634324032395 -2.1360260876081574 0 0 0 
	 73 8 3 -34.3376966402617 -135.3992389240415 -2.3549442634254314 0 0 0 
	 74 8 4 -33.76283578052085 -136.16213460775901 -2.5738624392427063 0 0 0 
	 75 8 5 -33.18797492078001 -136.92503029147656 -2.7927806150599803 0 0 0 
	 76 8 6 -32.61311406103916 -137.6879259751941 -3.0116987908772552 0 0 0 
	 77 8 7 -32.03825320129832 -138.45082165891165 -3.2306169666945292 0 0 0 
	 78 8 8 -31.46339234155747 -139.2137173426292 -3.4495351425118037 0 0 0 
	 79 8 9 -30.888531481816624 -139.97661302634674 -3.6684533183290777 0 0 0 
	 80 8 10 -30.31367062207578 -140.73950871006426 -3.887371494146352 0 0 0 
	 81 9 1 29.783011305005523 0.794851485628878 -40.63047878192921 0 0 0 
	 82 9 2 29.62109310754033 0.5084697264552911 -41.55360823403345 0 0 0 
	 83 9 3 29.459174910075138 0.2220879672817042 -42.47673768613768 0 0 0 
	 84 9 4 29.297256712609943 -0.06429379189188267 -43.399867138241916 0 0 0 
	 85 9 5 29.135338515144753 -0.35067555106546955 -44.32299659034615 0 0 0 
	 86 9 6 28.973420317679558 -0.6370573102390567 -45.246126042450385 0 0 0 
	 87 9 7 28.811502120214364 -0.9234390694126433 -46.16925549455462 0 0 0 
	 88 9 8 28.649583922749173 -1.2098208285862304 -47.09238494665885 0 0 0 
	 89 9 9 28.48766572528398 -1.496202587759817 -48.01551439876309 0 0 0 
	 90 9 10 28.325747527818784 -1.7825843469334046 -48.93864385086733 0 0 0 
	 91 10 1 0.0188126920964371 -88.37856665654952 20.536716041611804 0 0 0 
	 92 10 2 0.7052875307138026 -87.92844958140842 21.072016811844456 0 0 0 
	 93 10 3 1.391762369331168 -87.4783325062673 21.60731758207711 0 0 0 
	 94 10 4 2.0782372079485336 -87.02821543112618 22.14261835230976 0 0 0 
	 95 10 5 2.764712046565899 -86.57809835598506 22.677919122542413 0 0 0 
	 96 10 6 3.451186885183265 -86.12798128084395 23.213219892775065 0 0 0 
	 97 10 7 4.13766172380063 -85.67786420570285 23.748520663007717 0 0 0 
	 98 10 8 4.824136562417996 -85.22774713056172 24.28382143324037 0 0 0 
	 99 10 9 5.51061140103536 -84.77763005542062 24.81912220347302 0 0 0 
	 100 10 10 6.197086239652727 -84.3275129802795 25.354422973705674 0 0 0 
	 101 11 1 36.11678134725204 125.08431760861052 9.63258243158165 0 0 0 
	 102 11 2 36.16098956781491 125.84495935176709 9.016246669352658 0 0 0 
	 103 11 3 36.20519778837778 126.60560109492367 8.399910907123665 0 0 0 
	 104 11 4 36.24940600894065 127.36624283808024 7.783575144894671 0 0 0 
	 105 11 5 36.293614229503525 128.12688458123682 7.167239382665679 0 0 0 
	 106 11 6 36.3378224500664 128.88752632439338 6.550903620436687 0 0 0 
	 107 11 7 36.38203067062926 129.64816806754996 5.934567858207694 0 0 0 
	 108 11 8 36.426238891192135 130.40880981070654 5.3182320959787015 0 0 0 
	 109 11 9 36.47044711175501 131.1694515538631 4.701896333749708 0 0 0 
	 110 11 10 36.51465533231788 131.93009329701968 4.085560571520716 0 0 0 
	 111 12 1 -9.95566186982495 107.91576126485593 -33.1501924524878 0 0 0 
	 112 12 2 -10.229046612384892 108.68787535117195 -32.61213983401279 0 0 0 
	 113 12 3 -10.502431354944832 109.45998943748796 -32.07408721553778 0 0 0 
	 114 12 4 -10.775816097504775 110.23210352380399 -31.536034597062766 0 0 0 
	 115 12 5 -11.049200840064715 111.00421761012 -30.997981978587752 0 0 0 
	 116 12 6 -11.322585582624656 111.77633169643602 -30.459929360112742 0 0 0 
	 117 12 7 -11.595970325184597 112.54844578275204 -29.92187674163773 0 0 0 
	 118 12 8 -11.86935506774454 113.32055986906805 -29.383824123162718 0 0 0 
	 119 12 9 -12.14273981030448 114.09267395538407 -28.845771504687704 0 0 0 
	 120 12 10 -12.41612455286442 114.86478804170008 -28.30771888621269 0 0 0 
	 121 13 1 16.09586264950661 143.16366311832962 -36.51857600524695 0 0 0 
	 122 13 2 15.14683972259131 143.170607567752 -36.27422531707248 0 0 0 
	 123 13 3 14.19781679567601 143.17755201717435 -36.029874628898014 0 0 0 
	 124 13 4 13.24879386876071 143.18449646659673 -35.78552394072354 0 0 0 
	 125 13 5 12.29977094184541 143.1914409160191 -35.54117325254907 0 0 0 
	 126 13 6 11.350748014930108 143.19838536544145 -35.29682256437461 0 0 0 
	 127 13 7 10.401725088014809 143.20532981486383 -35.05247187620014 0 0 0 
	 128 13 8 9.45270216109951 143.2122742642862 -34.808121188025666 0 0 0 
	 129 13 9 8.503679234184208 143.21921871370856 -34.5637704998512 0 0 0 
	 130 13 10 7.554656307268907 143.22616316313093 -34.31941981167673 0 0 0 
	 131 14 1 -2.4461868915880314 -83.08609056445508 31.101301326822195 0 0 0 
	 132 14 2 -3.0158087900760897 -82.44525302773297 30.62668764782547 0 0 0 
	 133 14 3 -3.5854306885641476 -81.80441549101087 30.15207396882874 0 0 0 
	 134 14 4 -4.1550525870522055 -81.16357795428877 29.677460289832016 0 0 0 
	 135 14 5 -4.724674485540264 -80.52274041756667 29.202846610835287 0 0 0 
	 136 14 6 -5.294296384028322 -79.88190288084456 28.728232931838562 0 0 0 
	 137 14 7 -5.86391828251638 -79.24106534412246 28.253619252841833 0 0 0 
	 138 14 8 -6.433540181004439 -78.60022780740036 27.779005573845108 0 0 0 
	 139 14 9 -7.003162079492496 -77.95939027067826 27.30439189484838 0 0 0 
	 140 14 10 -7.572783977980555 -77.31855273395615 26.829778215851654 0 0 0 
	 141 15 1 -26.66888991163814 21.468505788901282 -42.53244884684339 0 0 0 
	 142 15 2 -26.004829326905405 22.009115322457173 -43.00906700851256 0 0 0 
	 143 15 3 -25.34076874217267 22.54972485601306 -43.48568517018173 0 0 0 
	 144 15 4 -24.676708157439936 23.09033438956895 -43.962303331850904 0 0 0 
	 145 15 5 -24.0126475727072 23.63094392312484 -44.43892149352008 0 0 0 
	 146 15 6 -23.348586987974464 24.17155345668073 -44.91553965518925 0 0 0 
	 147 15 7 -22.68452640324173 24.71216299023662 -45.39215781685842 0 0 0 
	 148 15 8 -22.020465818508995 25.25277252379251 -45.868775978527594 0 0 0 
	 149 15 9 -21.35640523377626 25.793382057348396 -46.345394140196774 0 0 0 
	 150 15 10 -20.692344649043527 26.33399159090429 -46.82201230186594 0 0 0 
	 151 16 1 6.223353605982851 -12.001068335321852 -42.299029957085345 0 0 0 
	 152 16 2 5.451942795470497 -12.260092410325989 -41.75292384103012 0 0 0 
	 153 16 3 4.680531984958144 -12.519116485330127 -41.20681772497489 0 0 0 
	 154 16 4 3.9091211744457897 -12.778140560334263 -40.66071160891966 0 0 0 
	 155 16 5 3.137710363933436 -13.0371646353384 -40.11460549286444 0 0 0 
	 156 16 6 2.366299553421082 -13.296188710342538 -39.568499376809214 0 0 0 
	 157 16 7 1.5948887429087284 -13.555212785346674 -39.02239326075399 0 0 0 
	 158 16 8 0.8234779323963748 -13.81423686035081 -38.47628714469876 0 0 0 
	 159 16 9 0.052067121884021184 -14.073260935354948 -37.93018102864353 0 0 0 
	 160 16 10 -0.7193436886283333 -14.332285010359087 -37.384074912588304 0 0 0 
	 161 17 1 26.018619709496814 -49.65285049894208 -35.38679715409019 0 0 0 
	 162 17 2 26.900854174251442 -50.06645734433341 -35.491638589813626 0 0 0 
	 163 17 3 27.78308863900607 -50.48006418972473 -35.59648002553706 0 0 0 
	 164 17 4 28.6653231037607 -50.89367103511606 -35.7013214612605 0 0 0 
	 165 17 5 29.547557568515323 -51.307277880507385 -35.806162896983935 0 0 0 
	 166 17 6 30.429792033269955 -51.72088472589871 -35.91100433270737 0 0 0 
	 167 17 7 31.31202649802458 -52.134491571290035 -36.0158457684308 0 0 0 
	 168 17 8 32.19426096277921 -52.54809841668136 -36.12068720415424 0 0 0 
	 169 17 9 33.076495427533835 -52.96170526207269 -36.22552863987767 0 0 0 
	 170 17 10 33.95872989228846 -53.37531210746402 -36.33037007560111 0 0 0 
	 171 18 1 -35.57301486964529 -108.28776957749801 -44.69494983246457 0 0 0 
	 172 18 2 -34.93409423850313 -107.55585679593284 -44.566559383900724 0 0 0 
	 173 18 3 -34.295173607360965 -106.82394401436765 -44.43816893533688 0 0 0 
	 174 18 4 -33.65625297621881 -106.09203123280247 -44.309778486773034 0 0 0 
	 175 18 5 -33.017332345076646 -105.3601184512373 -44.181388038209185 0 0 0 
	 176 18 6 -32.37841171393448 -104.62820566967213 -44.05299758964534 0 0 0 
	 177 18 7 -31.739491082792323 -103.89629288810694 -43.924607141081495 0 0 0 
	 178 18 8 -31.10057045165016 -103.16438010654176 -43.796216692517646 0 0 0 
	 179 18 9 -30.461649820508 -102.43246732497659 -43.6678262439538 0 0 0 
	 180 18 10 -29.822729189365837 -101.70055454341141 -43.539435795389956 0 0 0 
	 181 19 1 -46.860327126698785 64.3219206576144 35.62604259283258 0 0 0 
	 182 19 2 -46.36022360578912 63.60904231444729 35.17648621570389 0 0 0 
	 183 19 3 -45.86012008487946 62.89616397128018 34.726929838575195 0 0 0 
	 184 19 4 -45.3600165639698 62.18328562811307 34.2773734614465 0 0 0 
	 185 19 5 -44.85991304306014 61.470407284945956 33.827817084317815 0 0 0 
	 186 19 6 -44.35980952215047 60.75752894177885 33.37826070718912 0 0 0 
	 187 19 7 -43.85970600124081 60.04465059861174 32.92870433006043 0 0 0 
	 188 19 8 -43.35960248033115 59.33177225544463 32.47914795293173 0 0 0 
	 189 19 9 -42.85949895942149 58.61889391227752 32.02959157580304 0 0 0 
	 190 19 10 -42.359395438511825 57.90601556911041 31.58003519867435 0 0 0 
	 191 20 1 -6.428613145251571 -126.18045500584469 -12.88601754943951 0 0 0 
	 192 20 2 -6.6773433608242305 -127.03751751479845 -12.481076645594186 0 0 0 
	 193 20 3 -6.92607357639689 -127.89458002375221 -12.07613574174886 0 0 0 
	 194 20 4 -7.174803791969549 -128.75164253270597 -11.671194837903537 0 0 0 
	 195 20 5 -7.423534007542209 -129.60870504165973 -11.266253934058213 0 0 0 
	 196 20 6 -7.672264223114868 -130.4657675506135 -10.861313030212887 0 0 0 
	 197 20 7 -7.9209944386875275 -131.32283005956725 -10.456372126367565 0 0 0 
	 198 20 8 -8.169724654260186 -132.17989256852098 -10.05143122252224 0 0 0 
	 199 20 9 -8.418454869832846 -133.03695507747474 -9.646490318676914 0 0 0 
	 200 20 10 -8.667185085405507 -133.8940175864285 -9.24154941483159 0 0 0 
	 201 21 1 24.23561347618176 -23.85768443347338 4.991893632619593 0 0 0 
	 202 21 2 24.854727100400474 -24.57718007441004 4.748122545367815 0 0 0 
	 203 21 3 25.473840724619187 -25.2966757153467 4.504351458116038 0 0 0 
	 204 21 4 26.0929543488379 -26.016171356283365 4.26058037086426 0 0 0 
	 205 21 5 26.712067973056612 -26.735666997220026 4.016809283612482 0 0 0 
	 206 21 6 27.331181597275325 -27.455162638156686 3.7730381963607043 0 0 0 
	 207 21 7 27.950295221494034 -28.17465827909335 3.5292671091089263 0 0 0 
	 208 21 8 28.569408845712747 -28.89415392003001 3.28549602185715 0 0 0 
	 209 21 9 29.18852246993146 -29.61364956096667 3.041724934605371 0 0 0 
	 210 21 10 29.807636094150173 -30.333145201903335 2.797953847353595 0 0 0 
	 211 22 1 -32.89941436706824 -20.370250132022484 35.98783316891334 0 0 0 
	 212 22 2 -32.843800311734604 -21.280177688916222 36.347470372292996 0 0 0 
	 213 22 3 -32.78818625640096 -22.19010524580996 36.70710757567265 0 0 0 
	 214 22 4 -32.73257220106733 -23.1000328027037 37.06674477905231 0 0 0 
	 215 22 5 -32.676958145733686 -24.00996035959744 37.42638198243196 0 0 0 
	 216 22 6 -32.62134409040005 -24.919887916491177 37.78601918581162 0 0 0 
	 217 22 7 -32.565730035066416 -25.829815473384915 38.145656389191274 0 0 0 
	 218 22 8 -32.510115979732774 -26.739743030278653 38.50529359257093 0 0 0 
	 219 22 9 -32.45450192439914 -27.64967058717239 38.864930795950585 0 0 0 
	 220 22 10 -32.3988878690655 -28.55959814406613 39.22456799933024 0 0 0 
	 221 23 1 41.59044878809165 -48.2966183444015 -23.410132886723588 0 0 0 
	 222 23 2 40.80250872268995 -48.16272786016738 -22.843014035364973 0 0 0 
	 223 23 3 40.01456865728825 -48.02883737593325 -22.275895184006355 0 0 0 
	 224 23 4 39.22662859188655 -47.89494689169913 -21.70877633264774 0 0 0 
	 225 23 5 38.438688526484846 -47.761056407465 -21.141657481289123 0 0 0 
	 226 23 6 37.65074846108315 -47.627165923230876 -20.574538629930508 0 0 0 
	 227 23 7 36.86280839568145 -47.49327543899675 -20.007419778571894 0 0 0 
	 228 23 8 36.07486833027975 -47.359384954762625 -19.440300927213276 0 0 0 
	 229 23 9 35.28692826487805 -47.225494470528496 -18.87318207585466 0 0 0 
	 230 23 10 34.498988199476344 -47.09160398629437 -18.306063224496047 0 0 0 
	 231 24 1 20.36739868223011 10.437676796377204 -5.427769428477392 0 0 0 
	 232 24 2 20.247975722479104 10.915808546971293 -6.274839783145846 0 0 0 
	 233 24 3 20.128552762728095 11.393940297565385 -7.1219101378143 0 0 0 
	 234 24 4 20.00912980297709 11.872072048159474 -7.968980492482753 0 0 0 
	 235 24 5 19.88970684322608 12.350203798753563 -8.816050847151207 0 0 0 
	 236 24 6 19.770283883475074 12.828335549347655 -9.66312120181966 0 0 0 
	 237 24 7 19.650860923724068 13.306467299941744 -10.510191556488115 0 0 0 
	 238 24 8 19.531437963973058 13.784599050535833 -11.357261911156568 0 0 0 
	 239 24 9 19.412015004222052 14.262730801129923 -12.204332265825023 0 0 0 
	 240 24 10 19.292592044471043 14.740862551724014 -13.051402620493477 0 0 0 
	 241 25 1 -24.043154499216268 -101.46029692329192 -46.53205240601578 0 0 0 
	 242 25 2 -23.646613708240363 -100.56519031536939 -46.488011952502916 0 0 0 
	 243 25 3 -23.25007291726446 -99.67008370744685 -46.44397149899005 0 0 0 
	 244 25 4 -22.853532126288556 -98.77497709952432 -46.399931045477196 0 0 0 
	 245 25 5 -22.456991335312654 -97.87987049160178 -46.35589059196433 0 0 0 
	 246 25 6 -22.06045054433675 -96.98476388367925 -46.31185013845147 0 0 0 
	 247 25 7 -21.663909753360848 -96.08965727575671 -46.267809684938605 0 0 0 
	 248 25 8 -21.267368962384943 -95.19455066783418 -46.22376923142575 0 0 0 
	 249 25 9 -20.87082817140904 -94.29944405991165 -46.179728777912885 0 0 0 
	 250 25 10 -20.474287380433136 -93.40433745198911 -46.13568832440002 0 0 0 
	 251 26 1 -2.4453698526597956 100.0122157415289 -36.212951697289654 0 0 0 
	 252 26 2 -2.9062740737034423 99.94274855631387 -37.07500831329724 0 0 0 
	 253 26 3 -3.367178294747089 99.87328137109884 -37.937064929304825 0 0 0 
	 254 26 4 -3.828082515790736 99.80381418588382 -38.79912154531241 0 0 0 
	 255 26 5 -4.288986736834383 99.73434700066879 -39.661178161319995 0 0 0 
	 256 26 6 -4.74989095787803 99.66487981545376 -40.52323477732758 0 0 0 
	 257 26 7 -5.210795178921677 99.59541263023873 -41.385291393335166 0 0 0 
	 258 26 8 -5.671699399965323 99.52594544502371 -42.24734800934275 0 0 0 
	 259 26 9 -6.13260362100897 99.45647825980868 -43.10940462535034 0 0 0 
	 260 26 10 -6.593507842052617 99.38701107459364 -43.97146124135792 0 0 0 
	 261 27 1 -9.00301166425641 87.39521944663076 1.3508175067399097 0 0 0 
	 262 27 2 -8.299126368961343 87.90510394524009 1.8035462214745663 0 0 0 
	 263 27 3 -7.595241073666274 88.41498844384941 2.256274936209223 0 0 0 
	 264 27 4 -6.891355778371205 88.92487294245873 2.7090036509438793 0 0 0 
	 265 27 5 -6.187470483076137 89.43475744106804 3.161732365678536 0 0 0 
	 266 27 6 -5.483585187781067 89.94464193967737 3.614461080413193 0 0 0 
	 267 27 7 -4.779699892485999 90.45452643828669 4.067189795147849 0 0 0 
	 268 27 8 -4.075814597190931 90.96441093689602 4.519918509882506 0 0 0 
	 269 27 9 -3.371929301895862 91.47429543550534 4.9726472246171625 0 0 0 
	 270 27 10 -2.668044006600792 91.98417993411466 5.425375939351818 0 0 0 
	 271 28 1 12.091373586256138 52.99438272667467 34.329662506964866 0 0 0 
	 272 28 2 11.661556067522113 52.46335837246695 33.62704594309265 0 0 0 
	 273 28 3 11.231738548788089 51.93233401825923 32.924429379220435 0 0 0 
	 274 28 4 10.801921030054064 51.40130966405151 32.221812815348216 0 0 0 
	 275 28 5 10.37210351132004 50.870285309843794 31.519196251476 0 0 0 
	 276 28 6 9.942285992586015 50.33926095563607 30.816579687603785 0 0 0 
	 277 28 7 9.512468473851989 49.808236601428355 30.113963123731565 0 0 0 
	 278 28 8 9.082650955117966 49.27721224722063 29.41134655985935 0 0 0 
	 279 28 9 8.652833436383942 48.746187893012916 28.708729995987134 0 0 0 
	 280 28 10 8.223015917649917 48.21516353880519 28.006113432114915 0 0 0 
	 281 29 1 -43.978065192318006 134.07132527221196 14.044218042475453 0 0 0 
	 282 29 2 -43.81792551452156 134.64757651687611 13.267887064980497 0 0 0 
	 283 29 3 -43.657785836725125 135.22382776154026 12.491556087485542 0 0 0 
	 284 29 4 -43.49764615892868 135.8000790062044 11.715225109990586 0 0 0 
	 285 29 5 -43.337506481132245 136.37633025086856 10.93889413249563 0 0 0 
	 286 29 6 -43.1773668033358 136.95258149553268 10.162563155000672 0 0 0 
	 287 29 7 -43.01722712553936 137.52883274019683 9.386232177505718 0 0 0 
	 288 29 8 -42.85708744774292 138.10508398486098 8.609901200010762 0 0 0 
	 289 29 9 -42.696947769946476 138.68133522952513 7.833570222515807 0 0 0 
	 290 29 10 -42.53680809215004 139.25758647418928 7.057239245020849 0 0 0 
	 291 30 1 45.914861138402095 56.27906518302137 42.489756656873325 0 0 0 
	 292 30 2 45.24757422514968 56.01744603954615 41.82141273405413 0 0 0 
	 293 30 3 44.580287311897266 55.755826896070936 41.153068811234924 0 0 0 
	 294 30 4 43.91300039864485 55.49420775259571 40.48472488841573 0 0 0 
	 295 30 5 43.245713485392436 55.2325886091205 39.81638096559653 0 0 0 
	 296 30 6 42.57842657214002 54.970969465645275 39.14803704277733 0 0 0 
	 297 30 7 41.911139658887606 54.70935032217005 38.47969311995813 0 0 0 
	 298 30 8 41.24385274563519 54.44773117869484 37.81134919713893 0 0 0 
	 299 30 9 40.57656583238277 54.186112035219615 37.143005274319734 0 0 0 
	 300 30 10 39.90927891913036 53.92449289174439 36.47466135150054 0 0 0 
	 301 31 1 -25.63086458061751 -101.55052895753136 41.95259999616563 0 0 0 
	 302 31 2 -24.827499014691785 -101.54728942373588 41.39135738115352 0 0 0 
	 303 31 3 -24.024133448766065 -101.5440498899404 40.830114766141406 0 0 0 
	 304 31 4 -23.22076788284034 -101.54081035614492 40.2688721511293 0 0 0 
	 305 31 5 -22.41740231691462 -101.53757082234944 39.70762953611719 0 0 0 
	 306 31 6 -21.614036750988898 -101.53433128855394 39.146386921105076 0 0 0 
	 307 31 7 -20.81067118506318 -101.53109175475846 38.585144306092964 0 0 0 
	 308 31 8 -20.007305619137455 -101.52785222096298 38.02390169108085 0 0 0 
	 309 31 9 -19.203940053211735 -101.5246126871675 37.462659076068746 0 0 0 
	 310 31 10 -18.40057448728601 -101.52137315337202 36.901416461056634 0 0 0 
	 311 32 1 -30.117551518347863 -147.24944066857438 -13.38912022548271 0 0 0 
	 312 32 2 -29.526404604269914 -147.2018989389614 -14.169302966846246 0 0 0 
	 313 32 3 -28.93525769019196 -147.15435720934843 -14.949485708209783 0 0 0 
	 314 32 4 -28.34411077611401 -147.10681547973545 -15.72966844957332 0 0 0 
	 315 32 5 -27.75296386203606 -147.0592737501225 -16.509851190936857 0 0 0 
	 316 32 6 -27.16181694795811 -147.0117320205095 -17.290033932300393 0 0 0 
	 317 32 7 -26.57067003388016 -146.96419029089654 -18.07021667366393 0 0 0 
	 318 32 8 -25.97952311980221 -146.91664856128355 -18.850399415027464 0 0 0 
	 319 32 9 -25.388376205724256 -146.8691068316706 -19.630582156391 0 0 0 
	 320 32 10 -24.797229291646307 -146.8215651020576 -20.410764897754536 0 0 0 
	 321 33 1 -9.210645577209498 35.12485731974289 6.091864985198924 0 0 0 
	 322 33 2 -9.99847845365459 35.705036480880125 6.1476458042529565 0 0 0 
	 323 33 3 -10.786311330099682 36.28521564201737 6.2034266233069895 0 0 0 
	 324 33 4 -11.574144206544776 36.86539480315461 6.259207442361022 0 0 0 
	 325 33 5 -12.361977082989867 37.44557396429185 6.3149882614150545 0 0 0 
	 326 33 6 -13.149809959434961 38.02575312542909 6.370769080469087 0 0 0 
	 327 33 7 -13.937642835880053 38.605932286566336 6.426549899523119 0 0 0 
	 328 33 8 -14.725475712325146 39.186111447703574 6.482330718577152 0 0 0 
	 329 33 9 -15.513308588770238 39.76629060884082 6.538111537631184 0 0 0 
	 330 33 10 -16.30114146521533 40.34646976997806 6.593892356685217 0 0 0 
	 331 34 1 -14.725795445181888 100.65021710481636 32.58595562778744 0 0 0 
	 332 34 2 -15.126588469346302 101.3362091398911 33.159697625200195 0 0 0 
	 333 34 3 -15.527381493510717 102.02220117496582 33.73343962261295 0 0 0 
	 334 34 4 -15.92817451767513 102.70819321004055 34.30718162002571 0 0 0 
	 335 34 5 -16.328967541839546 103.39418524511527 34.88092361743846 0 0 0 
	 336 34 6 -16.72976056600396 104.08017728019 35.454665614851216 0 0 0 
	 337 34 7 -17.130553590168372 104.76616931526473 36.02840761226397 0 0 0 
	 338 34 8 -17.531346614332787 105.45216135033945 36.60214960967672 0 0 0 
	 339 34 9 -17.9321396384972 106.13815338541418 37.17589160708948 0 0 0 
	 340 34 10 -18.332932662661616 106.8241454204889 37.749633604502236 0 0 0 
	 341 35 1 -42.093120578982365 16.609996346931787 -3.870432525681944 0 0 0 
	 342 35 2 -41.72952381044856 17.04817386667675 -3.0728124086450617 0 0 0 
	 343 35 3 -41.36592704191476 17.486351386421706 -2.275192291608179 0 0 0 
	 344 35 4 -41.00233027338095 17.924528906166664 -1.4775721745712964 0 0 0 
	 345 35 5 -40.638733504847146 18.362706425911625 -0.6799520575344142 0 0 0 
	 346 35 6 -40.27513673631334 18.800883945656587 0.11766805950246884 0 0 0 
	 347 35 7 -39.91153996777954 19.239061465401544 0.915288176539351 0 0 0 
	 348 35 8 -39.547943199245736 19.677238985146502 1.7129082935762336 0 0 0 
	 349 35 9 -39.184346430711926 20.115416504891463 2.5105284106131154 0 0 0 
	 350 35 10 -38.82074966217812 20.553594024636425 3.308148527649999 0 0 0 
	 351 36 1 3.5042221199755086 -93.38341878994412 -33.18531870722694 0 0 0 
	 352 36 2 3.626264136330279 -93.43757341184575 -32.21445670716166 0 0 0 
	 353 36 3 3.74830615268505 -93.49172803374739 -31.243594707096385 0 0 0 
	 354 36 4 3.8703481690398203 -93.54588265564902 -30.272732707031107 0 0 0 
	 355 36 5 3.992390185394591 -93.60003727755067 -29.301870706965826 0 0 0 
	 356 36 6 4.114432201749361 -93.6541918994523 -28.331008706900548 0 0 0 
	 357 36 7 4.236474218104132 -93.70834652135393 -27.360146706835273 0 0 0 
	 358 36 8 4.358516234458903 -93.76250114325558 -26.389284706769992 0 0 0 
	 359 36 9 4.480558250813673 -93.81665576515721 -25.418422706704714 0 0 0 
	 360 36 10 4.602600267168444 -93.87081038705885 -24.447560706639436 0 0 0 
	 361 37 1 26.690173796541885 -89.59602921439743 18.461213677613074 0 0 0 
	 362 37 2 26.440887877933115 -90.46590877178775 18.83746636719523 0 0 0 
	 363 37 3 26.191601959324345 -91.33578832917807 19.213719056777386 0 0 0 
	 364 37 4 25.942316040715575 -92.20566788656839 19.58997174635954 0 0 0 
	 365 37 5 25.693030122106805 -93.0755474439587 19.966224435941697 0 0 0 
	 366 37 6 25.443744203498035 -93.94542700134902 20.342477125523853 0 0 0 
	 367 37 7 25.19445828488927 -94.81530655873934 20.71872981510601 0 0 0 
	 368 37 8 24.9451723662805 -95.68518611612966 21.09498250468817 0 0 0 
	 369 37 9 24.69588644767173 -96.55506567351998 21.47123519427032 0 0 0 
	 370 37 10 24.44660052906296 -97.4249452309103 21.84748788385248 0 0 0 
	 371 38 1 -31.190948011622467 127.12752638889752 -42.7920702737241 0 0 0 
	 372 38 2 -31.99953347598524 126.58831383476851 -42.66621572159781 0 0 0 
	 373 38 3 -32.80811894034801 126.0491012806395 -42.54036116947151 0 0 0 
	 374 38 4 -33.61670440471078 125.5098887265105 -42.41450661734522 0 0 0 
	 375 38 5 -34.42528986907356 124.97067617238149 -42.28865206521892 0 0 0 
	 376 38 6 -35.23387533343633 124.43146361825248 -42.16279751309263 0 0 0 
	 377 38 7 -36.0424607977991 123.89225106412347 -42.03694296096633 0 0 0 
	 378 38 8 -36.85104626216187 123.35303850999446 -41.91108840884004 0 0 0 
	 379 38 9 -37.659631726524644 122.81382595586544 -41.785233856713745 0 0 0 
	 380 38 10 -38.468217190887415 122.27461340173643 -41.659379304587446 0 0 0 
	 381 39 1 37.582719310605064 -142.52645784741438 21.8543524015265 0 0 0 
	 382 39 2 38.28104569931169 -143.04432451478718 21.402075528737114 0 0 0 
	 383 39 3 38.97937208801832 -143.56219118215998 20.94979865594773 0 0 0 
	 384 39 4 39.67769847672495 -144.08005784953278 20.497521783158344 0 0 0 
	 385 39 5 40.37602486543158 -144.59792451690558 20.045244910368957 0 0 0 
	 386 39 6 41.07435125413821 -145.11579118427838 19.592968037579574 0 0 0 
	 387 39 7 41.77267764284483 -145.63365785165118 19.140691164790187 0 0 0 
	 388 39 8 42.471004031551466 -146.15152451902398 18.6884142920008 0 0 0 
	 389 39 9 43.16933042025809 -146.6693911863968 18.236137419211417 0 0 0 
	 390 39 10 43.867656808964725 -147.1872578537696 17.78386054642203 0 0 0 
	 391 40 1 42.52783935567971 24.263936552826237 -9.030073364275149 0 0 0 
	 392 40 2 41.95606653748722 23.579380889639808 -9.436102166671729 0 0 0 
	 393 40 3 41.384293719294725 22.894825226453378 -9.842130969068307 0 0 0 
	 394 40 4 40.81252090110223 22.210269563266948 -10.248159771464888 0 0 0 
	 395 40 5 40.24074808290973 21.525713900080518 -10.654188573861468 0 0 0 
	 396 40 6 39.66897526471724 20.84115823689409 -11.060217376258047 0 0 0 
	 397 40 7 39.09720244652475 20.15660257370766 -11.466246178654627 0 0 0 