LAMMPS nunchunk data file 

10000  atoms          
9000  bonds          
8000  angles         
0  dihedrals      
0  impropers    

10 atom types     
9  bond types     
8  angle types    
0  dihedral types 
0  improper types 

-50.000000 50.000000 xlo xhi  
-150.000000 150.000000 ylo yhi  
-50.000000 50.000000 zlo zhi  

Masses

	 1  1.0 
	 2  1.0 
	 3  1.0 
	 4  1.0 
	 5  1.0 
	 6  1.0 
	 7  1.0 
	 8  1.0 
	 9  1.0 
	 10 1.0 

Atoms 

	 1 1 1 8.271389408242168 67.50843128657407 -20.628746194675074 0 0 0 
	 2 1 2 8.210612781471127 66.74934805328473 -21.245592080271578 0 0 0 
	 3 1 3 8.149836154700086 65.99026481999539 -21.862437965868086 0 0 0 
	 4 1 4 8.089059527929047 65.23118158670606 -22.47928385146459 0 0 0 
	 5 1 5 8.028282901158006 64.47209835341671 -23.096129737061098 0 0 0 
	 6 1 6 7.967506274386965 63.71301512012737 -23.712975622657602 0 0 0 
	 7 1 7 7.906729647615924 62.953931886838035 -24.329821508254106 0 0 0 
	 8 1 8 7.845953020844884 62.194848653548696 -24.946667393850614 0 0 0 
	 9 1 9 7.785176394073844 61.43576542025936 -25.56351327944712 0 0 0 
	 10 1 10 7.724399767302803 60.67668218697002 -26.180359165043626 0 0 0 
	 11 2 1 -13.329933232179647 -7.193243222336165 -9.078410421286732 0 0 0 
	 12 2 2 -13.040904329616044 -6.677356734429045 -8.29692246547568 0 0 0 
	 13 2 3 -12.751875427052443 -6.161470246521925 -7.515434509664628 0 0 0 
	 14 2 4 -12.462846524488842 -5.645583758614805 -6.733946553853576 0 0 0 
	 15 2 5 -12.17381762192524 -5.129697270707684 -5.952458598042524 0 0 0 
	 16 2 6 -11.884788719361637 -4.613810782800565 -5.170970642231472 0 0 0 
	 17 2 7 -11.595759816798036 -4.097924294893444 -4.38948268642042 0 0 0 
	 18 2 8 -11.306730914234436 -3.5820378069863246 -3.6079947306093683 0 0 0 
	 19 2 9 -11.017702011670833 -3.0661513190792036 -2.8265067747983164 0 0 0 
	 20 2 10 -10.72867310910723 -2.5502648311720835 -2.0450188189872645 0 0 0 
	 21 3 1 7.924969477399735 -77.9776493094921 23.373905765481407 0 0 0 
	 22 3 2 8.791320275002066 -77.52888899771384 23.46583224733774 0 0 0 
	 23 3 3 9.6576710726044 -77.08012868593558 23.557758729194074 0 0 0 
	 24 3 4 10.524021870206731 -76.63136837415732 23.64968521105041 0 0 0 
	 25 3 5 11.390372667809064 -76.18260806237906 23.741611692906744 0 0 0 
	 26 3 6 12.256723465411396 -75.7338477506008 23.833538174763078 0 0 0 
	 27 3 7 13.123074263013727 -75.28508743882254 23.92546465661941 0 0 0 
	 28 3 8 13.989425060616059 -74.83632712704429 24.017391138475748 0 0 0 
	 29 3 9 14.855775858218392 -74.38756681526603 24.10931762033208 0 0 0 
	 30 3 10 15.722126655820723 -73.93880650348777 24.201244102188415 0 0 0 
	 31 4 1 38.93385156072109 -108.3191148874239 -35.533543200469396 0 0 0 
	 32 4 2 39.096615440241095 -107.50362605201525 -35.01500112999927 0 0 0 
	 33 4 3 39.259379319761095 -106.68813721660659 -34.49645905952915 0 0 0 
	 34 4 4 39.4221431992811 -105.87264838119795 -33.977916989059025 0 0 0 
	 35 4 5 39.5849070788011 -105.05715954578929 -33.4593749185889 0 0 0 
	 36 4 6 39.74767095832111 -104.24167071038065 -32.94083284811878 0 0 0 
	 37 4 7 39.91043483784111 -103.426181874972 -32.422290777648655 0 0 0 
	 38 4 8 40.073198717361116 -102.61069303956334 -31.903748707178533 0 0 0 
	 39 4 9 40.235962596881116 -101.7952042041547 -31.38520663670841 0 0 0 
	 40 4 10 40.39872647640112 -100.97971536874604 -30.866664566238285 0 0 0 
	 41 5 1 6.298527514573104 -72.66786329220693 -28.137609952559618 0 0 0 
	 42 5 2 6.86150785658039 -71.8714298150256 -28.23324912308209 0 0 0 
	 43 5 3 7.424488198587676 -71.07499633784428 -28.328888293604557 0 0 0 
	 44 5 4 7.987468540594963 -70.27856286066296 -28.424527464127028 0 0 0 
	 45 5 5 8.55044888260225 -69.48212938348163 -28.520166634649495 0 0 0 
	 46 5 6 9.113429224609536 -68.68569590630032 -28.615805805171966 0 0 0 
	 47 5 7 9.676409566616822 -67.889262429119 -28.711444975694434 0 0 0 
	 48 5 8 10.239389908624108 -67.09282895193768 -28.807084146216905 0 0 0 
	 49 5 9 10.802370250631395 -66.29639547475635 -28.902723316739372 0 0 0 
	 50 5 10 11.365350592638682 -65.49996199757503 -28.998362487261844 0 0 0 
	 51 6 1 -17.201220556887254 48.60184419235777 -26.32531952193766 0 0 0 
	 52 6 2 -17.454038515279322 49.52427555753181 -26.111769863877477 0 0 0 
	 53 6 3 -17.70685647367139 50.44670692270585 -25.898220205817292 0 0 0 
	 54 6 4 -17.95967443206346 51.36913828787989 -25.684670547757108 0 0 0 
	 55 6 5 -18.212492390455523 52.291569653053934 -25.471120889696923 0 0 0 
	 56 6 6 -18.46531034884759 53.214001018227975 -25.25757123163674 0 0 0 
	 57 6 7 -18.71812830723966 54.13643238340202 -25.044021573576558 0 0 0 
	 58 6 8 -18.970946265631728 55.05886374857606 -24.830471915516373 0 0 0 
	 59 6 9 -19.223764224023796 55.98129511375009 -24.61692225745619 0 0 0 
	 60 6 10 -19.47658218241586 56.90372647892414 -24.403372599396004 0 0 0 
	 61 7 1 15.30216057182534 -78.1031385038973 -39.81342224666836 0 0 0 
	 62 7 2 14.428102717883855 -77.88916131640235 -39.425302894928514 0 0 0 
	 63 7 3 13.55404486394237 -77.67518412890742 -39.03718354318867 0 0 0 
	 64 7 4 12.679987010000884 -77.46120694141247 -38.64906419144882 0 0 0 
	 65 7 5 11.805929156059399 -77.24722975391752 -38.260944839708976 0 0 0 
	 66 7 6 10.931871302117912 -77.03325256642259 -37.87282548796912 0 0 0 
	 67 7 7 10.057813448176429 -76.81927537892764 -37.48470613622928 0 0 0 
	 68 7 8 9.183755594234942 -76.6052981914327 -37.09658678448943 0 0 0 
	 69 7 9 8.309697740293457 -76.39132100393776 -36.708467432749586 0 0 0 
	 70 7 10 7.4356398863519715 -76.17734381644281 -36.32034808100974 0 0 0 
	 71 8 1 15.870371078994816 36.557276018414875 42.43927896714712 0 0 0 
	 72 8 2 15.009384429178223 36.723235022083244 42.87695418684661 0 0 0 
	 73 8 3 14.148397779361629 36.88919402575161 43.3146294065461 0 0 0 
	 74 8 4 13.287411129545035 37.05515302941998 43.7523046262456 0 0 0 
	 75 8 5 12.42642447972844 37.221112033088346 44.189979845945096 0 0 0 
	 76 8 6 11.565437829911847 37.387071036756716 44.62765506564459 0 0 0 
	 77 8 7 10.704451180095255 37.55303004042508 45.06533028534408 0 0 0 
	 78 8 8 9.843464530278661 37.71898904409345 45.503005505043575 0 0 0 
	 79 8 9 8.982477880462067 37.88494804776182 45.940680724743075 0 0 0 
	 80 8 10 8.121491230645473 38.05090705143019 46.37835594444257 0 0 0 
	 81 9 1 3.282749680014807 -47.998069456869416 -49.359454453728866 0 0 0 
	 82 9 2 3.589385262144375 -47.75556808814932 -48.46080674414466 0 0 0 
	 83 9 3 3.8960208442739432 -47.51306671942921 -47.56215903456045 0 0 0 
	 84 9 4 4.202656426403511 -47.27056535070911 -46.66351132497625 0 0 0 
	 85 9 5 4.5092920085330785 -47.02806398198901 -45.764863615392045 0 0 0 
	 86 9 6 4.815927590662647 -46.78556261326891 -44.86621590580784 0 0 0 
	 87 9 7 5.122563172792215 -46.5430612445488 -43.96756819622364 0 0 0 
	 88 9 8 5.429198754921783 -46.300559875828704 -43.06892048663943 0 0 0 
	 89 9 9 5.735834337051351 -46.0580585071086 -42.170272777055224 0 0 0 
	 90 9 10 6.042469919180919 -45.8155571383885 -41.27162506747102 0 0 0 
	 91 10 1 19.95866395916124 -91.6851736353794 1.1048898140278207 0 0 0 
	 92 10 2 19.338895017002447 -92.44308260399586 1.1480227901144697 0 0 0 
	 93 10 3 18.719126074843654 -93.20099157261234 1.1911557662011187 0 0 0 
	 94 10 4 18.099357132684858 -93.9589005412288 1.2342887422877675 0 0 0 
	 95 10 5 17.479588190526066 -94.71680950984528 1.2774217183744165 0 0 0 
	 96 10 6 16.859819248367273 -95.47471847846174 1.3205546944610658 0 0 0 
	 97 10 7 16.24005030620848 -96.23262744707822 1.3636876705477143 0 0 0 
	 98 10 8 15.620281364049687 -96.99053641569468 1.4068206466343638 0 0 0 
	 99 10 9 15.000512421890893 -97.74844538431114 1.4499536227210124 0 0 0 
	 100 10 10 14.3807434797321 -98.50635435292762 1.4930865988076614 0 0 0 
	 101 11 1 -5.818443209519009 -87.62248669167604 -17.176336970763916 0 0 0 
	 102 11 2 -6.738434473889846 -87.67195059145344 -16.84231691732377 0 0 0 
	 103 11 3 -7.658425738260685 -87.72141449123083 -16.508296863883622 0 0 0 
	 104 11 4 -8.578417002631523 -87.77087839100822 -16.174276810443477 0 0 0 
	 105 11 5 -9.498408267002361 -87.82034229078562 -15.84025675700333 0 0 0 
	 106 11 6 -10.4183995313732 -87.86980619056301 -15.506236703563182 0 0 0 
	 107 11 7 -11.338390795744036 -87.9192700903404 -15.172216650123037 0 0 0 
	 108 11 8 -12.258382060114876 -87.9687339901178 -14.838196596682888 0 0 0 
	 109 11 9 -13.178373324485714 -88.01819788989519 -14.504176543242743 0 0 0 
	 110 11 10 -14.098364588856553 -88.06766178967258 -14.170156489802595 0 0 0 
	 111 12 1 21.05459033259033 70.1246915547424 29.37767878597991 0 0 0 
	 112 12 2 20.917698546376673 69.28951070327076 29.871777545543587 0 0 0 
	 113 12 3 20.78080676016302 68.45432985179914 30.36587630510726 0 0 0 
	 114 12 4 20.643914973949364 67.61914900032752 30.859975064670937 0 0 0 
	 115 12 5 20.507023187735708 66.78396814885589 31.354073824234614 0 0 0 
	 116 12 6 20.370131401522052 65.94878729738426 31.84817258379829 0 0 0 
	 117 12 7 20.2332396153084 65.11360644591264 32.342271343361965 0 0 0 
	 118 12 8 20.096347829094743 64.27842559444102 32.83637010292564 0 0 0 
	 119 12 9 19.959456042881087 63.443244742969384 33.33046886248932 0 0 0 
	 120 12 10 19.822564256667434 62.60806389149776 33.824567622052996 0 0 0 
	 121 13 1 -8.15249801120006 -48.935437080669395 -2.397723360648818 0 0 0 
	 122 13 2 -7.357051094936682 -48.78184454090033 -1.846294729605441 0 0 0 
	 123 13 3 -6.561604178673305 -48.62825200113127 -1.2948660985620641 0 0 0 
	 124 13 4 -5.766157262409927 -48.47465946136221 -0.7434374675186868 0 0 0 
	 125 13 5 -4.97071034614655 -48.32106692159315 -0.1920088364753103 0 0 0 
	 126 13 6 -4.175263429883172 -48.167474381824086 0.3594197945680673 0 0 0 
	 127 13 7 -3.3798165136197955 -48.01388184205503 0.9108484256114444 0 0 0 
	 128 13 8 -2.5843695973564174 -47.86028930228596 1.4622770566548215 0 0 0 
	 129 13 9 -1.78892268109304 -47.706696762516906 2.0137056876981974 0 0 0 
	 130 13 10 -0.9934757648296628 -47.55310422274784 2.5651343187415754 0 0 0 
	 131 14 1 41.7579118883301 40.09441860193682 -22.311834043085234 0 0 0 
	 132 14 2 41.69639001905025 39.43505397449027 -23.03422822057602 0 0 0 
	 133 14 3 41.6348681497704 38.77568934704372 -23.756622398066803 0 0 0 
	 134 14 4 41.57334628049055 38.11632471959717 -24.479016575557587 0 0 0 
	 135 14 5 41.511824411210696 37.456960092150624 -25.201410753048368 0 0 0 
	 136 14 6 41.450302541930846 36.797595464704074 -25.923804930539152 0 0 0 
	 137 14 7 41.388780672650995 36.138230837257524 -26.646199108029936 0 0 0 
	 138 14 8 41.32725880337115 35.478866209810974 -27.36859328552072 0 0 0 
	 139 14 9 41.2657369340913 34.819501582364424 -28.090987463011505 0 0 0 
	 140 14 10 41.20421506481145 34.160136954917874 -28.81338164050229 0 0 0 
	 141 15 1 -0.5363617289046885 -52.810472867677696 -35.61066117451015 0 0 0 
	 142 15 2 0.15917222339035308 -52.82425644471376 -36.300909343076306 0 0 0 
	 143 15 3 0.8547061756853946 -52.83804002174983 -36.991157511642456 0 0 0 
	 144 15 4 1.5502401279804365 -52.8518235987859 -37.68140568020861 0 0 0 
	 145 15 5 2.2457740802754778 -52.86560717582197 -38.37165384877476 0 0 0 
	 146 15 6 2.9413080325705203 -52.879390752858036 -39.06190201734092 0 0 0 
	 147 15 7 3.6368419848655615 -52.89317432989411 -39.75215018590707 0 0 0 
	 148 15 8 4.332375937160602 -52.906957906930174 -40.44239835447323 0 0 0 
	 149 15 9 5.027909889455644 -52.92074148396624 -41.13264652303938 0 0 0 
	 150 15 10 5.7234438417506865 -52.93452506100231 -41.82289469160553 0 0 0 
	 151 16 1 -9.038935776969147 -56.41307525584159 -12.088167411026319 0 0 0 
	 152 16 2 -8.103529815837286 -56.68979316362448 -11.99413078310274 0 0 0 
	 153 16 3 -7.168123854705424 -56.966511071407375 -11.900094155179161 0 0 0 
	 154 16 4 -6.232717893573563 -57.24322897919026 -11.806057527255582 0 0 0 
	 155 16 5 -5.297311932441701 -57.51994688697316 -11.712020899332003 0 0 0 
	 156 16 6 -4.361905971309839 -57.79666479475605 -11.617984271408424 0 0 0 
	 157 16 7 -3.4265000101779783 -58.07338270253894 -11.523947643484846 0 0 0 
	 158 16 8 -2.491094049046117 -58.35010061032183 -11.429911015561267 0 0 0 
	 159 16 9 -1.5556880879142554 -58.62681851810472 -11.33587438763769 0 0 0 
	 160 16 10 -0.6202821267823939 -58.903536425887616 -11.241837759714109 0 0 0 
	 161 17 1 21.312452150868687 -99.88566107613639 34.74402963910338 0 0 0 
	 162 17 2 20.889699673492593 -100.31835601754926 35.515038997378674 0 0 0 
	 163 17 3 20.4669471961165 -100.75105095896214 36.286048355653975 0 0 0 
	 164 17 4 20.044194718740407 -101.18374590037502 37.05705771392927 0 0 0 
	 165 17 5 19.621442241364313 -101.61644084178789 37.82806707220456 0 0 0 
	 166 17 6 19.19868976398822 -102.04913578320077 38.59907643047986 0 0 0 
	 167 17 7 18.775937286612127 -102.48183072461364 39.370085788755155 0 0 0 
	 168 17 8 18.353184809236033 -102.91452566602652 40.141095147030455 0 0 0 
	 169 17 9 17.93043233185994 -103.3472206074394 40.91210450530575 0 0 0 
	 170 17 10 17.507679854483847 -103.77991554885227 41.68311386358104 0 0 0 
	 171 18 1 -32.48558141533315 -99.77954132340706 -27.793661222668288 0 0 0 
	 172 18 2 -32.711928507432894 -100.70996576963003 -27.5851490077535 0 0 0 
	 173 18 3 -32.93827559953263 -101.640390215853 -27.376636792838713 0 0 0 
	 174 18 4 -33.164622691632374 -102.57081466207597 -27.168124577923926 0 0 0 
	 175 18 5 -33.39096978373211 -103.50123910829895 -26.95961236300914 0 0 0 
	 176 18 6 -33.617316875831854 -104.43166355452192 -26.751100148094352 0 0 0 
	 177 18 7 -33.84366396793159 -105.36208800074488 -26.542587933179565 0 0 0 
	 178 18 8 -34.070011060031334 -106.29251244696785 -26.334075718264778 0 0 0 
	 179 18 9 -34.29635815213107 -107.22293689319082 -26.12556350334999 0 0 0 
	 180 18 10 -34.52270524423081 -108.15336133941379 -25.917051288435204 0 0 0 
	 181 19 1 41.12904947888648 -95.31234628594886 -35.78700292096227 0 0 0 
	 182 19 2 40.67320155539971 -94.73843697096294 -36.43756480796856 0 0 0 
	 183 19 3 40.217353631912935 -94.16452765597703 -37.08812669497486 0 0 0 
	 184 19 4 39.76150570842617 -93.5906183409911 -37.73868858198115 0 0 0 
	 185 19 5 39.3056577849394 -93.01670902600517 -38.38925046898745 0 0 0 
	 186 19 6 38.84980986145263 -92.44279971101925 -39.03981235599374 0 0 0 
	 187 19 7 38.393961937965855 -91.86889039603334 -39.690374243000036 0 0 0 
	 188 19 8 37.93811401447908 -91.29498108104741 -40.34093613000633 0 0 0 
	 189 19 9 37.48226609099232 -90.72107176606148 -40.99149801701262 0 0 0 
	 190 19 10 37.02641816750555 -90.14716245107556 -41.642059904018915 0 0 0 
	 191 20 1 -9.393937595104418 -43.158413114870505 -6.8654922235457105 0 0 0 
	 192 20 2 -9.33246639273732 -44.06942758384342 -6.509579413153131 0 0 0 
	 193 20 3 -9.270995190370222 -44.98044205281633 -6.153666602760552 0 0 0 
	 194 20 4 -9.209523988003122 -45.891456521789245 -5.797753792367972 0 0 0 
	 195 20 5 -9.148052785636024 -46.80247099076216 -5.441840981975393 0 0 0 
	 196 20 6 -9.086581583268925 -47.71348545973507 -5.085928171582813 0 0 0 
	 197 20 7 -9.025110380901827 -48.62449992870798 -4.730015361190235 0 0 0 
	 198 20 8 -8.963639178534727 -49.5355143976809 -4.374102550797655 0 0 0 
	 199 20 9 -8.902167976167629 -50.44652886665381 -4.0181897404050755 0 0 0 
	 200 20 10 -8.84069677380053 -51.35754333562672 -3.662276930012496 0 0 0 
	 201 21 1 -23.56897939557904 -5.469648481789092 44.24135232171682 0 0 0 
	 202 21 2 -23.5963816023052 -4.565033121157726 44.6172780702049 0 0 0 
	 203 21 3 -23.623783809031362 -3.6604177605263613 44.993203818692976 0 0 0 
	 204 21 4 -23.65118601575752 -2.7558023998949963 45.369129567181055 0 0 0 
	 205 21 5 -23.678588222483683 -1.851187039263631 45.745055315669134 0 0 0 
	 206 21 6 -23.705990429209844 -0.9465716786322655 46.12098106415721 0 0 0 
	 207 21 7 -23.733392635936006 -0.04195631800090105 46.496906812645285 0 0 0 
	 208 21 8 -23.76079484266217 0.8626590426304634 46.872832561133364 0 0 0 
	 209 21 9 -23.788197049388327 1.7672744032618297 47.248758309621444 0 0 0 
	 210 21 10 -23.81559925611449 2.671889763893194 47.62468405810952 0 0 0 
	 211 22 1 -20.796204478181224 105.26529641682943 24.38893652688623 0 0 0 
	 212 22 2 -20.47378226512989 104.35970175059657 24.19830017929826 0 0 0 
	 213 22 3 -20.151360052078562 103.45410708436371 24.00766383171029 0 0 0 
	 214 22 4 -19.82893783902723 102.54851241813085 23.81702748412232 0 0 0 
	 215 22 5 -19.5065156259759 101.642917751898 23.626391136534348 0 0 0 
	 216 22 6 -19.184093412924568 100.73732308566514 23.435754788946376 0 0 0 
	 217 22 7 -18.861671199873236 99.83172841943228 23.245118441358407 0 0 0 
	 218 22 8 -18.539248986821903 98.92613375319942 23.05448209377044 0 0 0 
	 219 22 9 -18.216826773770574 98.02053908696656 22.863845746182466 0 0 0 
	 220 22 10 -17.89440456071924 97.1149444207337 22.673209398594498 0 0 0 
	 221 23 1 -28.201782615416427 -37.299138934665855 29.839421812951528 0 0 0 
	 222 23 2 -29.02459916615275 -36.983180942469865 29.411002076009055 0 0 0 
	 223 23 3 -29.847415716889074 -36.66722295027387 28.982582339066585 0 0 0 
	 224 23 4 -30.670232267625394 -36.35126495807788 28.554162602124112 0 0 0 
	 225 23 5 -31.49304881836172 -36.03530696588189 28.12574286518164 0 0 0 
	 226 23 6 -32.31586536909804 -35.71934897368589 27.69732312823917 0 0 0 
	 227 23 7 -33.13868191983437 -35.4033909814899 27.268903391296696 0 0 0 
	 228 23 8 -33.96149847057069 -35.08743298929391 26.840483654354223 0 0 0 
	 229 23 9 -34.78431502130701 -34.77147499709791 26.412063917411754 0 0 0 
	 230 23 10 -35.607131572043336 -34.45551700490192 25.98364418046928 0 0 0 
	 231 24 1 -33.10273262457183 -41.24505978674344 -43.81342609473283 0 0 0 
	 232 24 2 -32.83149456793546 -41.97211642779885 -44.41193971807765 0 0 0 
	 233 24 3 -32.56025651129909 -42.69917306885427 -45.01045334142247 0 0 0 
	 234 24 4 -32.289018454662724 -43.426229709909684 -45.60896696476728 0 0 0 
	 235 24 5 -32.01778039802635 -44.153286350965104 -46.207480588112105 0 0 0 
	 236 24 6 -31.746542341389983 -44.88034299202052 -46.80599421145692 0 0 0 
	 237 24 7 -31.475304284753616 -45.607399633075936 -47.404507834801734 0 0 0 
	 238 24 8 -31.204066228117245 -46.33445627413135 -48.003021458146556 0 0 0 
	 239 24 9 -30.932828171480878 -47.06151291518677 -48.60153508149137 0 0 0 
	 240 24 10 -30.661590114844508 -47.78856955624218 -49.20004870483619 0 0 0 
	 241 25 1 0.9428306493487804 80.52609383701989 -45.18432491167509 0 0 0 
	 242 25 2 1.207507271095169 81.3483974434534 -45.64710246595724 0 0 0 
	 243 25 3 1.472183892841558 82.1707010498869 -46.10988002023938 0 0 0 
	 244 25 4 1.7368605145879468 82.99300465632041 -46.57265757452153 0 0 0 
	 245 25 5 2.0015371363343357 83.81530826275392 -47.03543512880367 0 0 0 
	 246 25 6 2.2662137580807244 84.63761186918742 -47.49821268308582 0 0 0 
	 247 25 7 2.530890379827113 85.45991547562095 -47.96099023736796 0 0 0 
	 248 25 8 2.7955670015735024 86.28221908205445 -48.42376779165011 0 0 0 
	 249 25 9 3.060243623319891 87.10452268848796 -48.88654534593225 0 0 0 
	 250 25 10 3.32492024506628 87.92682629492147 -49.349322900214396 0 0 0 
	 251 26 1 -26.65883804878434 4.355571367945443 46.38603831549596 0 0 0 
	 252 26 2 -27.089100154608666 5.013020430576034 45.80034620325799 0 0 0 
	 253 26 3 -27.51936226043299 5.670469493206625 45.21465409102002 0 0 0 
	 254 26 4 -27.949624366257318 6.327918555837215 44.62896197878205 0 0 0 
	 255 26 5 -28.379886472081644 6.985367618467806 44.04326986654408 0 0 0 
	 256 26 6 -28.81014857790597 7.642816681098396 43.45757775430611 0 0 0 
	 257 26 7 -29.240410683730293 8.300265743728986 42.87188564206814 0 0 0 
	 258 26 8 -29.67067278955462 8.957714806359576 42.28619352983017 0 0 0 
	 259 26 9 -30.100934895378945 9.61516386899017 41.7005014175922 0 0 0 
	 260 26 10 -30.53119700120327 10.27261293162076 41.11480930535423 0 0 0 
	 261 27 1 -12.568048360742011 38.66195355826603 -31.510515706422716 0 0 0 
	 262 27 2 -12.112303608358676 39.33262197022962 -32.06087976944763 0 0 0 
	 263 27 3 -11.656558855975339 40.0032903821932 -32.611243832472546 0 0 0 
	 264 27 4 -11.200814103592002 40.67395879415679 -33.16160789549746 0 0 0 
	 265 27 5 -10.745069351208667 41.34462720612038 -33.71197195852237 0 0 0 
	 266 27 6 -10.289324598825331 42.01529561808396 -34.262336021547284 0 0 0 
	 267 27 7 -9.833579846441994 42.68596403004755 -34.8127000845722 0 0 0 
	 268 27 8 -9.377835094058659 43.35663244201113 -35.363064147597115 0 0 0 
	 269 27 9 -8.922090341675322 44.02730085397472 -35.91342821062203 0 0 0 
	 270 27 10 -8.466345589291986 44.69796926593831 -36.463792273646945 0 0 0 
	 271 28 1 -34.080708092826626 -56.252498201272985 -2.9388789686855765 0 0 0 
	 272 28 2 -33.5788248816413 -56.261348062175166 -2.097193206484314 0 0 0 
	 273 28 3 -33.07694167045598 -56.270197923077355 -1.2555074442830518 0 0 0 
	 274 28 4 -32.57505845927066 -56.279047783979536 -0.41382168208178927 0 0 0 
	 275 28 5 -32.073175248085334 -56.287897644881724 0.42786408011947286 0 0 0 
	 276 28 6 -31.571292036900008 -56.296747505783905 1.2695498423207359 0 0 0 
	 277 28 7 -31.069408825714685 -56.305597366686094 2.111235604521998 0 0 0 
	 278 28 8 -30.567525614529362 -56.314447227588275 2.95292136672326 0 0 0 
	 279 28 9 -30.065642403344036 -56.32329708849046 3.7946071289245222 0 0 0 
	 280 28 10 -29.563759192158713 -56.332146949392644 4.636292891125786 0 0 0 
	 281 29 1 4.795366248799072 63.98835166038068 27.311102630732755 0 0 0 
	 282 29 2 5.510853780058035 63.81641263817484 27.95833872772971 0 0 0 
	 283 29 3 6.226341311316998 63.64447361596899 28.605574824726666 0 0 0 
	 284 29 4 6.941828842575961 63.47253459376315 29.252810921723622 0 0 0 
	 285 29 5 7.657316373834924 63.3005955715573 29.900047018720578 0 0 0 
	 286 29 6 8.372803905093887 63.12865654935146 30.547283115717534 0 0 0 
	 287 29 7 9.08829143635285 62.95671752714562 31.19451921271449 0 0 0 
	 288 29 8 9.803778967611812 62.78477850493977 31.841755309711445 0 0 0 
	 289 29 9 10.519266498870778 62.61283948273393 32.4889914067084 0 0 0 
	 290 29 10 11.23475403012974 62.440900460528084 33.136227503705356 0 0 0 
	 291 30 1 45.213054188014354 -112.06848477132341 -40.5156521386118 0 0 0 
	 292 30 2 44.83753928034519 -112.31736402352233 -41.38596683568586 0 0 0 
	 293 30 3 44.46202437267602 -112.56624327572126 -42.25628153275993 0 0 0 
	 294 30 4 44.086509465006856 -112.81512252792018 -43.12659622983399 0 0 0 
	 295 30 5 43.71099455733769 -113.06400178011911 -43.99691092690806 0 0 0 
	 296 30 6 43.33547964966853 -113.31288103231803 -44.86722562398213 0 0 0 
	 297 30 7 42.95996474199936 -113.56176028451695 -45.737540321056194 0 0 0 
	 298 30 8 42.584449834330194 -113.81063953671588 -46.60785501813026 0 0 0 
	 299 30 9 42.20893492666103 -114.0595187889148 -47.478169715204324 0 0 0 
	 300 30 10 41.83342001899186 -114.30839804111372 -48.34848441227839 0 0 0 
	 301 31 1 23.994724912928845 -11.771529261224389 10.68133246947528 0 0 0 
	 302 31 2 23.68863531045299 -12.699661693169986 10.608673374883324 0 0 0 
	 303 31 3 23.382545707977137 -13.627794125115585 10.536014280291367 0 0 0 
	 304 31 4 23.076456105501283 -14.555926557061184 10.463355185699411 0 0 0 
	 305 31 5 22.77036650302543 -15.484058989006781 10.390696091107456 0 0 0 
	 306 31 6 22.464276900549574 -16.412191420952382 10.318036996515499 0 0 0 
	 307 31 7 22.15818729807372 -17.340323852897978 10.245377901923543 0 0 0 
	 308 31 8 21.852097695597863 -18.268456284843577 10.172718807331588 0 0 0 
	 309 31 9 21.546008093122012 -19.196588716789172 10.100059712739633 0 0 0 
	 310 31 10 21.239918490646154 -20.12472114873477 10.027400618147677 0 0 0 
	 311 32 1 -0.47955931389885853 -118.29237449443907 40.7857348933943 0 0 0 
	 312 32 2 -1.0472394035058437 -118.46184503281424 40.005081927931 0 0 0 
	 313 32 3 -1.6149194931128288 -118.63131557118939 39.224428962467705 0 0 0 
	 314 32 4 -2.182599582719814 -118.80078610956456 38.44377599700441 0 0 0 
	 315 32 5 -2.750279672326799 -118.9702566479397 37.66312303154111 0 0 0 
	 316 32 6 -3.317959761933785 -119.13972718631487 36.882470066077815 0 0 0 
	 317 32 7 -3.8856398515407693 -119.30919772469002 36.10181710061452 0 0 0 
	 318 32 8 -4.453319941147754 -119.47866826306519 35.32116413515122 0 0 0 
	 319 32 9 -5.02100003075474 -119.64813880144034 34.540511169687925 0 0 0 
	 320 32 10 -5.588680120361726 -119.8176093398155 33.75985820422463 0 0 0 
	 321 33 1 -23.108057701183583 -9.384871851738863 23.848502501768788 0 0 0 
	 322 33 2 -23.08564971390894 -9.788006204795279 24.74146418935235 0 0 0 
	 323 33 3 -23.0632417266343 -10.191140557851694 25.634425876935914 0 0 0 
	 324 33 4 -23.040833739359655 -10.594274910908112 26.527387564519476 0 0 0 
	 325 33 5 -23.01842575208501 -10.997409263964528 27.42034925210304 0 0 0 
	 326 33 6 -22.996017764810368 -11.400543617020944 28.313310939686602 0 0 0 
	 327 33 7 -22.973609777535728 -11.80367797007736 29.206272627270167 0 0 0 
	 328 33 8 -22.951201790261084 -12.206812323133775 30.099234314853728 0 0 0 
	 329 33 9 -22.92879380298644 -12.60994667619019 30.99219600243729 0 0 0 
	 330 33 10 -22.9063858157118 -13.013081029246608 31.885157690020854 0 0 0 
	 331 34 1 -48.03916848889106 141.28857952958512 -43.39422314260668 0 0 0 
	 332 34 2 -47.161935116188204 140.85258698267137 -43.36643629586161 0 0 0 
	 333 34 3 -46.28470174348535 140.41659443575762 -43.338649449116545 0 0 0 
	 334 34 4 -45.4074683707825 139.98060188884384 -43.31086260237148 0 0 0 
	 335 34 5 -44.53023499807965 139.54460934193008 -43.28307575562641 0 0 0 
	 336 34 6 -43.653001625376795 139.10861679501633 -43.25528890888135 0 0 0 
	 337 34 7 -42.77576825267394 138.67262424810258 -43.22750206213628 0 0 0 
	 338 34 8 -41.898534879971095 138.23663170118883 -43.199715215391215 0 0 0 
	 339 34 9 -41.02130150726824 137.80063915427507 -43.17192836864615 0 0 0 
	 340 34 10 -40.14406813456539 137.3646466073613 -43.14414152190108 0 0 0 
	 341 35 1 -6.1045175900083954 -93.31176397615693 -3.624253542931577 0 0 0 
	 342 35 2 -6.467840588916246 -92.4072920680189 -3.5226318628934457 0 0 0 
	 343 35 3 -6.831163587824097 -91.50282015988088 -3.4210101828553148 0 0 0 
	 344 35 4 -7.194486586731948 -90.59834825174286 -3.3193885028171835 0 0 0 
	 345 35 5 -7.557809585639799 -89.69387634360484 -3.217766822779052 0 0 0 
	 346 35 6 -7.9211325845476495 -88.78940443546682 -3.1161451427409217 0 0 0 
	 347 35 7 -8.2844555834555 -87.8849325273288 -3.0145234627027904 0 0 0 
	 348 35 8 -8.647778582363351 -86.98046061919078 -2.91290178266466 0 0 0 
	 349 35 9 -9.011101581271202 -86.07598871105276 -2.8112801026265277 0 0 0 
	 350 35 10 -9.374424580179054 -85.17151680291474 -2.709658422588397 0 0 0 
	 351 36 1 -25.315576980447663 41.4428926997535 -21.527357323058148 0 0 0 
	 352 36 2 -24.440796823602764 41.84324225016926 -21.71411897509708 0 0 0 
	 353 36 3 -23.566016666757864 42.24359180058502 -21.900880627136015 0 0 0 
	 354 36 4 -22.69123650991296 42.643941351000784 -22.08764227917495 0 0 0 
	 355 36 5 -21.816456353068062 43.044290901416545 -22.274403931213882 0 0 0 
	 356 36 6 -20.941676196223163 43.4446404518323 -22.461165583252818 0 0 0 
	 357 36 7 -20.066896039378264 43.84499000224806 -22.64792723529175 0 0 0 
	 358 36 8 -19.192115882533365 44.24533955266382 -22.83468888733068 0 0 0 
	 359 36 9 -18.317335725688466 44.64568910307958 -23.021450539369617 0 0 0 
	 360 36 10 -17.442555568843567 45.046038653495344 -23.20821219140855 0 0 0 
	 361 37 1 43.559787107636936 -49.13888463426475 8.408692780890403 0 0 0 
	 362 37 2 44.07387864721959 -48.48547640734224 8.927506406308556 0 0 0 
	 363 37 3 44.58797018680223 -47.83206818041973 9.44632003172671 0 0 0 
	 364 37 4 45.102061726384875 -47.178659953497224 9.965133657144863 0 0 0 
	 365 37 5 45.616153265967526 -46.525251726574716 10.483947282563015 0 0 0 
	 366 37 6 46.13024480555018 -45.87184349965221 11.00276090798117 0 0 0 
	 367 37 7 46.64433634513282 -45.2184352727297 11.52157453339932 0 0 0 
	 368 37 8 47.158427884715465 -44.56502704580719 12.040388158817475 0 0 0 
	 369 37 9 47.672519424298116 -43.91161881888468 12.559201784235627 0 0 0 
	 370 37 10 48.18661096388077 -43.258210591962175 13.07801540965378 0 0 0 
	 371 38 1 14.873163167602899 -59.0419754775092 -47.13699534363103 0 0 0 
	 372 38 2 14.458648543777452 -58.93073343610301 -46.255971601125395 0 0 0 
	 373 38 3 14.044133919952005 -58.81949139469683 -45.37494785861976 0 0 0 
	 374 38 4 13.62961929612656 -58.70824935329065 -44.49392411611413 0 0 0 
	 375 38 5 13.215104672301113 -58.59700731188447 -43.61290037360849 0 0 0 
	 376 38 6 12.800590048475666 -58.48576527047828 -42.73187663110286 0 0 0 
	 377 38 7 12.386075424650219 -58.3745232290721 -41.850852888597224 0 0 0 
	 378 38 8 11.971560800824772 -58.26328118766592 -40.96982914609159 0 0 0 
	 379 38 9 11.557046176999327 -58.15203914625974 -40.08880540358596 0 0 0 
	 380 38 10 11.14253155317388 -58.04079710485355 -39.20778166108032 0 0 0 
	 381 39 1 -8.502847848703022 5.0568143968752866 47.143326250697534 0 0 0 
	 382 39 2 -7.571369795343175 5.360488953054603 47.120295835194405 0 0 0 
	 383 39 3 -6.639891741983329 5.664163509233919 47.097265419691276 0 0 0 
	 384 39 4 -5.708413688623483 5.967838065413236 47.07423500418815 0 0 0 
	 385 39 5 -4.776935635263637 6.271512621592553 47.051204588685025 0 0 0 
	 386 39 6 -3.8454575819037906 6.57518717777187 47.028174173181895 0 0 0 
	 387 39 7 -2.913979528543944 6.878861733951186 47.005143757678766 0 0 0 
	 388 39 8 -1.9825014751840992 7.182536290130502 46.98211334217564 0 0 0 
	 389 39 9 -1.0510234218242527 7.4862108463098185 46.95908292667251 0 0 0 
	 390 39 10 -0.11954536846440433 7.789885402489135 46.93605251116938 0 0 0 
	 391 40 1 44.30821321822446 -10.528977413716923 -38.3130799569686 0 0 0 
	 392 40 2 44.51598588687184 -11.097582712717923 -39.083741057654976 0 0 0 
	 393 40 3 44.72375855551922 -11.666188011718923 -39.854402158341344 0 0 0 
	 394 40 4 44.9315312241666 -12.234793310719922 -40.62506325902771 0 0 0 
	 395 40 5 45.13930389281398 -12.80339860972092 -41.39572435971409 0 0 0 
	 396 40 6 45.34707656146136 -13.37200390872192 -42.16638546040046 0 0 0 