LAMMPS nunchunk data file 

10  atoms          
9  bonds          
8  angles         
0  dihedrals      
0  impropers    

10 atom types     
9  bond types     
8  angle types    
0  dihedral types 
0  improper types 

-5.000000 5.000000 xlo xhi  
-15.000000 15.000000 ylo yhi  
-5.000000 5.000000 zlo zhi  

Masses

	 1  1.0 
	 2  1.0 
	 3  1.0 
	 4  1.0 
	 5  1.0 
	 6  1.0 
	 7  1.0 
	 8  1.0 
	 9  1.0 
	 10 1.0 

Atoms 

	 1 1 1 1.7092067939104638 -2.0611324600128644 4.362772691619964 0 0 0 
	 2 1 2 1.870759082682852 -1.2117902555413778 3.901341572496082 0 0 0 
	 3 1 3 2.03231137145524 -0.3624480510698911 3.4399104533722005 0 0 0 
	 4 1 4 2.193863660227628 0.4868941534015958 2.97847933424832 0 0 0 
	 5 1 5 2.355415949000016 1.3362363578730823 2.5170482151244373 0 0 0 
	 6 1 6 2.5169682377724043 2.18557856234457 2.0556170960005558 0 0 0 
	 7 1 7 2.6785205265447924 3.034920766816056 1.5941859768766755 0 0 0 
	 8 1 8 2.8400728153171806 3.884262971287542 1.1327548577527922 0 0 0 
	 9 1 9 3.0016251040895687 4.733605175759029 0.671323738628911 0 0 0 
	 10 1 10 3.1631773928619564 5.582947380230516 0.20989261950503035 0 0 0 


Bonds 

	 1 1 1 2 
	 2 2 2 3 
	 3 3 3 4 
	 4 4 4 5 
	 5 5 5 6 
	 6 6 6 7 
	 7 7 7 8 
	 8 8 8 9 
	 9 9 9 10 


Angles 

	 1 1 1 2 3 
	 2 2 2 3 4 
	 3 3 3 4 5 
	 4 4 4 5 6 
	 5 5 5 6 7 
	 6 6 6 7 8 
	 7 7 7 8 9 
	 8 8 8 9 10 
