LAMMPS (3 Mar 2020)
OMP_NUM_THREADS environment is not set. Defaulting to 1 thread. (../comm.cpp:94)
  using 1 OpenMP thread(s) per MPI task
#SETUP
# Runs on the first loop only
# shell del *.dump     # delete all dump files before first run CAREFUL WITH THIS
shell del restart.time*     # delete all current restart files before first run
shell lmp_serial -in in.run_setup     # first run of file, generate first restart file

#VARIABLES
variable N         equal  1000  #MUST BE SAME AS SETUP FILE FOR PHASEPLOT
variable T         equal  0.5
variable t_step    equal  0.005 #originally 0.005
variable mix_steps index  50000 50000 50000
variable mix_tau   equal  ${t_step}*${mix_steps}
variable mix_tau   equal  0.005*${mix_steps}
variable mix_tau   equal  0.005*50000
variable run_steps equal  50000 # steps to run simulation in order to reach steady state
variable run_tau   equal  ${t_step}*${run_steps} # this is the time in LJ units
variable run_tau   equal  0.005*${run_steps} 
variable run_tau   equal  0.005*50000 

#LOOP START
label loop  #start loop from here
read_restart restart.time*
  restoring atom style molecular from restart
  orthogonal box = (-50 -50 -50) to (50 50 50)
  1 by 1 by 1 MPI processor grid
  restoring pair style lj/cut from restart
  restoring bond style harmonic from restart
  restoring angle style harmonic from restart
  10000 atoms
  9000 bonds
  8000 angles
  2 = max # of 1-2 neighbors
  2 = max # of 1-3 neighbors
  4 = max # of 1-4 neighbors
  6 = max # of special neighbors
  special bonds CPU = 0.00702286 secs
  read_restart CPU = 0.021518 secs
# this reads in latest restart file, * is wildcard for timestep


# THERMAL
timestep ${t_step}
timestep 0.005
thermo   100
thermo_style custom step time temp press pe ke etotal vol
thermo_modify norm no


# DUMP OUTPUT
dump  1  all custom 50000 output_T_${T}__time_*.dump id mol type x y z vx vy vz
dump  1  all custom 50000 output_T_0.5__time_*.dump id mol type x y z vx vy vz
# dumps all positions etc every N (1000?) steps
#dump_modify 1 sort id

# FIX
fix 2 all nph iso 0.5 0.5 100
fix 3 all langevin 0.5 0.5 1 123456
run ${mix_steps}
run 50000
Neighbor list info ...
  update every 1 steps, delay 10 steps, check yes
  max neighbors/atom: 2000, page size: 100000
  master list distance cutoff = 1.42
  ghost atom cutoff = 1.9
  binsize = 0.71, bins = 141 141 141
  1 neighbor lists, perpetual/occasional/extra = 1 0 0
  (1) pair lj/cut, perpetual
      attributes: half, newton on
      pair build: half/bin/newton
      stencil: half/bin/3d/newton
      bin: standard
Per MPI rank memory allocation (min/avg/max) = 21.25 | 21.25 | 21.25 Mbytes
Step Time Temp Press PotEng KinEng TotEng Volume 
       0            0            0 -1.5395349e-16 1.5065726e-10            0 1.5065726e-10 1000000 
     100          0.5   0.21588284 0.00020668693    2525.9498    3237.9187    5763.8685    998130.47 
     200            1   0.34233443 0.0016134679    4023.1094     5134.503    9157.6123    992661.99 
     300          1.5   0.40151989 0.00050264389    5067.2559     6022.196    11089.452    984528.61 
     400            2   0.44347291 -0.00012236672    5586.0038    6651.4285    12237.432    975781.49 
     500          2.5   0.46111811 0.00012523967    5950.1551      6916.08    12866.235    967863.54 
     600            3   0.48141791 0.00052446193    6151.8962    7220.5465    13372.443    960506.31 
     700          3.5    0.4861056 0.00043912461    6315.0065    7290.8548    13605.861    953104.83 
     800            4   0.48825834 0.00050857739    6289.4797    7323.1428    13612.622    945619.32 
     900          4.5   0.49560974 0.0012267237    6283.2923    7433.4027    13716.695    938351.52 
    1000            5   0.49657462 0.0014021999    6233.2693    7447.8745    13681.144    931514.01 
    1100          5.5    0.4941478 0.00012012405     6356.614    7411.4758     13768.09    925096.18 
    1200            6   0.50097391 5.4169509e-05    6369.9923    7513.8573     13883.85    918979.03 
    1300          6.5   0.49702135 0.00098417608    6443.3611    7454.5747    13897.936    913058.02 
    1400            7   0.49457999 0.0003922217    6496.3919    7417.9579     13914.35    907278.19 
    1500          7.5    0.4988786 0.00061051563    6490.6397    7482.4307     13973.07    901617.47 
    1600            8   0.49714345 0.0012095861    6476.6683     7456.406    13933.074    896066.42 
    1700          8.5   0.49665415 -0.00019220983    6482.9733    7449.0673    13932.041    890618.63 
    1800            9    0.5009575 -0.00033730911    6435.2087     7513.611     13948.82    885266.03 
    1900          9.5   0.50664842 0.0001461087    6510.3437    7598.9664     14109.31    880002.38 
    2000           10   0.49866075 0.0016330754    6528.0644    7479.1632    14007.228    874821.45 
    2100         10.5   0.49821727 0.00067416873    6471.1524    7472.5118    13943.664    869720.53 
    2200           11   0.50266794 -0.000630367    6328.8118    7539.2652    13868.077    864694.05 
    2300         11.5   0.50320788 0.00030840879    6440.8215    7547.3634    13988.185    859738.75 
    2400           12   0.49946547 0.0022953883    6404.1628    7491.2329    13895.396    854852.23 
    2500         12.5   0.50584273 0.0016994778    6422.7304    7586.8822    14009.613    850033.04 
    2600           13    0.5037562 -0.00042555327    6449.6986    7555.5874    14005.286    845278.37 
    2700         13.5   0.50265685 -1.0528763e-05    6423.3978    7539.0988    13962.497    840584.92 
    2800           14   0.50229937 0.0010804913    6361.4068    7533.7372    13895.144    835949.98 
    2900         14.5   0.49932413 0.00063096745    6469.5635    7489.1129    13958.676    831372.83 
    3000           15   0.49937952 0.0017783201    6503.2319    7489.9437    13993.176    826850.72 
    3100         15.5   0.50547114 0.0018482671    6480.8025    7581.3088    14062.111    822383.87 
    3200           16   0.49674093 -0.0010306203    6533.3487    7450.3689    13983.718    817969.09 
    3300         16.5   0.50938977 0.00075444373    6333.9273    7640.0825     13974.01     813603.6 
    3400           17   0.50151977 0.0012657533    6431.9597    7522.0443    13954.004    809288.63 
    3500         17.5    0.5039923 0.00071076875    6459.7655    7559.1284    14018.894    805021.85 
    3600           18   0.49869987 0.00064672904    6451.4055    7479.7499    13931.155    800801.75 
    3700         18.5   0.49436658 0.00090954345    6433.2164    7414.7571    13847.974    796627.85 
    3800           19   0.50009552 -0.00070602712    6401.5457    7500.6826    13902.228    792500.27 
    3900         19.5   0.50104318 -7.4386666e-05    6398.8374    7514.8961    13913.733    788415.11 
    4000           20   0.50233846  0.001561007    6410.7017    7534.3234    13945.025    784372.75 
    4100         20.5   0.50421969 0.0014182239     6422.973     7562.539    13985.512    780372.63 
    4200           21   0.50405435  0.000537007    6483.9699    7560.0591    14044.029    776414.26 
    4300         21.5   0.50426636 -0.00011230751    6387.1728    7563.2389    13950.412    772497.29 
    4400           22   0.50029013 0.00083864605    6389.9058    7503.6015    13893.507    768619.56 
    4500         22.5    0.4951378 0.00026304237    6446.8902    7426.3244    13873.215    764781.43 
    4600           23   0.49587702 0.00089073865    6352.8776    7437.4115    13790.289    760979.34 
    4700         23.5   0.49438284 0.00028906764    6493.0157     7415.001    13908.017     757214.5 
    4800           24   0.49612156 0.0020339542    6454.7693    7441.0792    13895.849    753485.56 
    4900         24.5   0.50030142  0.002618243    6411.6121    7503.7709    13915.383    749794.18 
    5000           25   0.50192589 -0.0002004839    6393.3338    7528.1355    13921.469    746139.04 
    5100         25.5    0.4956046 0.0002654849    6402.4729    7433.3256    13835.798    742517.57 
    5200           26   0.49809094 0.0018303398    6439.0325    7470.6169    13909.649    738929.84 
    5300         26.5   0.49926498 0.0015641899    6338.7767    7488.2258    13827.003    735375.03 
    5400           27    0.5065012 0.00045314703    6394.9121    7596.7582     13991.67    731853.29 
    5500         27.5   0.50766483 0.0003819556    6421.1855     7614.211    14035.396    728364.04 
    5600           28   0.50553144 0.00062470823    6375.0781    7582.2133    13957.291    724906.66 
    5700         28.5   0.50403667 0.00062410284     6382.755    7559.7939    13942.549    721480.08 
    5800           29   0.50034747 0.00041353742    6521.9888    7504.4615     14026.45    718083.42 
    5900         29.5   0.50342523 0.00095348896    6476.6824    7550.6233    14027.306    714716.42 
    6000           30   0.50367627 0.0015448578    6420.3861    7554.3885    13974.775    711379.65 
    6100         30.5   0.49643033 0.0013445387    6356.4876    7445.7103    13802.198    708072.01 
    6200           31   0.49673798 -0.0010852137    6419.2405    7450.3246    13869.565    704793.87 
    6300         31.5   0.49777351 -3.2628562e-05    6375.7871     7465.856    13841.643    701542.18 
    6400           32   0.49487028 0.00063752769    6403.5315    7422.3119    13825.843    698318.54 
    6500         32.5   0.49760151 0.0013449036     6328.181    7463.2762    13791.457    695123.58 
    6600           33   0.48970696 0.00030876131    6444.9783    7344.8699    13789.848    691955.99 
    6700         33.5   0.49674822 -0.00084875625    6443.0014    7450.4781     13893.48    688815.52 
    6800           34   0.49675673  0.001722095    6481.7453    7450.6057    13932.351    685701.12 
    6900         34.5   0.50141551  0.000615086    6560.2493    7520.4805     14080.73     682612.7 
    7000           35   0.49728177 0.00069461398    6514.7144    7458.4806    13973.195     679549.1 
    7100         35.5   0.50042604 0.00078420142    6486.3406    7505.6399    13991.981    676511.05 
    7200           36    0.5019132 0.00034403494     6479.724    7527.9451    14007.669    673498.59 
    7300         36.5   0.50223566 0.0022505008    6485.6907    7532.7815    14018.472    670510.14 
    7400           37   0.49868383 0.00097493029     6476.532    7479.5094    13956.041    667545.95 
    7500         37.5   0.49575578 0.00095848208    6455.8524    7435.5931    13891.445     664604.8 
    7600           38   0.49867719 0.00051953111    6461.4358    7479.4099    13940.846    661687.94 
    7700         38.5   0.50248041 0.00059326119    6401.7911    7536.4525    13938.244    658794.95 
    7800           39    0.4993229 0.0012241979    6444.6805    7489.0945    13933.775    655924.61 
    7900         39.5   0.49954539 0.0015045818    6390.3256    7492.4315    13882.757    653076.43 
    8000           40   0.49715489 0.0015431768    6491.8868    7456.5776    13948.464    650250.57 
    8100         40.5   0.50094883 0.00010434526     6484.526     7513.481    13998.007    647446.92 
    8200           41   0.50314413 -2.1338117e-05    6441.8049    7546.4072    13988.212    644666.02 
    8300         41.5   0.50004368 0.00069908035    6451.0804    7499.9051    13950.985    641906.44 
    8400           42   0.50380933 0.00045124125    6449.8573    7556.3843    14006.242    639168.38 
    8500         42.5   0.49802855 0.0012072642     6474.696    7469.6812    13944.377    636450.04 
    8600           43   0.50223127 0.0021580745    6474.1388    7532.7157    14006.854    633752.22 
    8700         43.5   0.49515415 0.00035937992    6458.9161    7426.5696    13885.486    631074.82 
    8800           44   0.50143791 -0.00085324691    6362.2023    7520.8165    13883.019    628417.75 
    8900         44.5   0.49397623 0.00094118115    6380.2334    7408.9025    13789.136    625780.91 
    9000           45   0.49633978 0.0020617463    6339.9402    7444.3522    13784.292    623163.85 
    9100         45.5   0.50081175 0.0011795624    6375.6672    7511.4251    13887.092    620566.71 
    9200           46   0.49991838 0.00030640403    6467.2166    7498.0258    13965.242    617988.46 
    9300         46.5   0.49719686 0.0011371315    6511.4245    7457.2071    13968.632    615428.97 
    9400           47   0.50304433 0.0027267165     6307.146    7544.9104    13852.056    612887.87 
    9500         47.5    0.5081007 -0.00048206889    6295.6603    7620.7484    13916.409    610366.19 
    9600           48   0.50166691 -1.7215132e-05    6434.9183    7524.2512    13959.169    607862.28 
    9700         48.5   0.50295885 0.0018001192     6383.404    7543.6283    13927.032    605376.29 
    9800           49   0.49494969 0.0015202647    6458.8586    7423.5029    13882.361    602908.57 
    9900         49.5   0.50070156 0.00010340891    6406.7196    7509.7724    13916.492    600459.23 
   10000           50    0.5027161 0.0010399114    6438.5395    7539.9874    13978.527    598027.56 
   10100         50.5   0.49943268 0.0026535865     6376.872    7490.7411    13867.613    595613.16 
   10200           51    0.5007424 -0.0004465064    6424.4253    7510.3849     13934.81    593216.32 
   10300         51.5   0.49806784 -0.00058550293    6421.2954    7470.2705    13891.566    590835.39 
   10400           52   0.50058059 0.0015627238    6388.8974     7507.958    13896.855    588471.33 
   10500         52.5   0.49664481 0.0023064118    6434.3678    7448.9273    13883.295    586123.58 
   10600           53   0.49956182 -0.0003060664    6395.6173    7492.6779    13888.295     583792.7 
   10700         53.5   0.49653393 -0.0010399822    6444.7493    7447.2642    13892.013     581477.8 
   10800           54   0.49847979 0.0024900467    6480.6549    7476.4491    13957.104    579179.08 
   10900         54.5   0.50421766 0.0022694611    6411.3933    7562.5086    13973.902    576896.69 
   11000           55   0.49366926 0.00031988141    6459.8453    7404.2984    13864.144    574629.86 
   11100         55.5   0.49401346 7.2913792e-05    6382.5563    7409.4609    13792.017    572378.47 
   11200           56   0.49610444 0.0028461079    6376.7589    7440.8225    13817.581    570142.24 
   11300         56.5   0.50119099 0.0009756376    6403.3866     7517.113      13920.5    567921.57 
   11400           57   0.49499345 0.00019697598    6422.0303    7424.1593     13846.19    565715.39 
   11500         57.5   0.49513651 0.00091999135    6410.7471     7426.305    13837.052    563524.47 
   11600           58   0.49788306 0.0017209117    6416.6232    7467.4991    13884.122    561348.03 
   11700         58.5   0.49733329 0.00099130601    6482.5156    7459.2534    13941.769    559186.56 
   11800           59   0.50583968 -0.0013898908    6475.4872    7586.8364    14062.324    557039.97 
   11900         59.5   0.50228079 0.00098905577    6478.3839    7533.4585    14011.842    554907.38 
   12000           60   0.50609264 0.0024553653    6493.4846    7590.6304    14084.115    552789.15 
   12100         60.5   0.50001031 0.00063615861     6494.691    7499.4046    13994.096    550684.93 
   12200           61   0.50467897 0.00069230727    6512.4388    7569.4275    14081.866    548593.91 
   12300         61.5   0.51033276 0.00060908067     6427.683    7654.2259    14081.909    546516.69 
   12400           62   0.50698695  0.001987765    6459.9861    7604.0437     14064.03    544453.04 
   12500         62.5    0.4972865 0.0016610733    6486.9567    7458.5516    13945.508    542403.49 
   12600           63   0.50009928 0.00069977853    6380.9716    7500.7391    13881.711    540367.21 
   12700         63.5   0.50390683 0.0019150017    6421.7576    7557.8466    13979.604    538344.13 
   12800           64   0.50104257 0.0011746906    6533.8581     7514.887    14048.745    536334.28 
   12900         64.5   0.49812931 0.0018436672     6484.796    7471.1925    13955.988    534337.02 
   13000           65   0.49723219 -0.00081941568    6460.3834    7457.7371     13918.12    532352.85 
   13100         65.5   0.50267962 0.0016558677    6490.9507    7539.4402    14030.391    530380.79 
   13200           66   0.49958001 0.0018532412    6523.2383    7492.9507    14016.189    528421.35 
   13300         66.5   0.49855427  0.002214994    6468.9121    7477.5661    13946.478    526473.88 
   13400           67   0.49803749 0.0003544507    6392.7304    7469.8153    13862.546     524539.5 
   13500         67.5   0.50088172 0.00059271143    6379.9359    7512.4745     13892.41    522617.02 
   13600           68     0.492952 -0.0010572022    6555.2014    7393.5405    13948.742    520706.98 
   13700         68.5    0.4959164 -0.00096352531    6457.9478    7438.0021     13895.95    518808.65 
   13800           69   0.49957236 0.00010684135    6490.0511     7492.836    13982.887    516922.02 
   13900         69.5   0.50072579 0.0021090706    6467.1829    7510.1358    13977.319    515046.33 
   14000           70   0.50068515 -0.00099237282    6490.5737    7509.5262      14000.1    513182.82 
   14100         70.5   0.50603194  0.002077064    6453.8524    7589.7201    14043.572    511331.14 
   14200           71   0.50294018  0.001540273    6520.3304    7543.3483    14063.679    509491.12 
   14300         71.5   0.50345431 0.0020045584    6490.5396    7551.0594    14041.599    507662.48 
   14400           72   0.50297479 0.00080551842    6554.5288    7543.8674    14098.396    505844.76 
   14500         72.5   0.49780789 -0.00035762732    6418.3938    7466.3716    13884.765    504038.37 
   14600           73   0.49497447 0.00064132531    6431.2529    7423.8747    13855.128     502242.8 
   14700         73.5   0.50193246 0.0026219944    6399.6244     7528.234    13927.858     500458.3 
   14800           74   0.50966372 0.0026245362    6359.4653    7644.1914    14003.657    498684.72 
   14900         74.5   0.49882771 0.0012124784    6446.2896    7481.6675    13927.957    496921.89 
   15000           75   0.50336764 -0.00029178204    6476.4008    7549.7596     14026.16    495170.15 
   15100         75.5   0.50279807 0.0001597741    6445.1684    7541.2168    13986.385    493428.67 
   15200           76   0.50446209 0.0014405676     6437.738    7566.1746    14003.913    491696.93 
   15300         76.5   0.49979506  0.001185482    6420.3458    7496.1763    13916.522    489975.35 
   15400           77   0.49630249 0.0011630163    6412.2059    7443.7929    13855.999    488264.15 
   15500         77.5   0.49939795 -0.00019250805    6464.5728    7490.2201    13954.793    486563.85 
   15600           78   0.49939868 0.0016829806    6404.4778    7490.2311    13894.709    484873.54 
   15700         78.5   0.49281706 0.00079848289    6461.1331    7391.5167     13852.65    483193.69 
   15800           79    0.4994581 -0.0011758066    6480.0103    7491.1223    13971.133     481523.1 
   15900         79.5   0.49947612 -0.00069991577    6441.2473    7491.3925     13932.64    479861.54 
   16000           80   0.50141126 0.0025728375    6418.1452    7520.4168    13938.562    478209.77 
   16100         80.5   0.51085414 0.0030716834    6362.2951    7662.0459    14024.341    476568.08 
   16200           81   0.50209968 0.0017546524    6408.1932    7530.7421    13938.935    474936.01 
   16300         81.5   0.49731635 -0.001132166    6433.1797    7458.9993    13892.179    473313.91 
   16400           82   0.49505336 -0.0013526887    6350.8277    7425.0578    13775.885    471701.28 
   16500         82.5   0.49346403 0.00076255557    6389.2778    7401.2203    13790.498    470097.92 
   16600           83   0.49850928  0.004167462    6446.4096    7476.8915    13923.301    468503.47 
   16700         83.5   0.49924015 0.0018224698    6393.1187    7487.8534    13880.972    466918.79 
   16800           84   0.50236969 -0.00069118463    6421.2608    7534.7918    13956.053    465343.45 
   16900         84.5   0.50198841 0.0012823896    6392.4456    7529.0731    13921.519    463776.63 
   17000           85   0.49763157 0.0027408334    6509.4074    7463.7271    13973.135    462218.34 
   17100         85.5   0.50080096 0.00075577329    6500.8676    7511.2632    14012.131     460669.2 
   17200           86   0.49679849 -3.8549897e-05    6440.1029    7451.2322    13891.335    459128.84 
   17300         86.5   0.49945157  0.002456361    6464.9011    7491.0243    13955.925    457597.07 
   17400           87   0.50142965 0.0019666697     6479.519    7520.6926    14000.212    456074.19 
   17500         87.5   0.49998358 0.00051054675    6512.7788    7499.0037    14011.782     454559.9 
   17600           88   0.49681192 -0.0011697278    6528.3984    7451.4336    13979.832    453053.98 
   17700         88.5   0.49950299 0.0024163183    6442.1275    7491.7956    13933.923    451556.32 
   17800           89   0.49691498 0.0026510088    6428.0081    7452.9793    13880.987    450067.41 
   17900         89.5    0.4987094 0.0011805195    6442.5406    7479.8929    13922.434    448587.08 
   18000           90   0.51155422 0.00063550352    6350.4803    7672.5459    14023.026    447114.78 
   18100         90.5    0.5031331  0.002157709    6553.0612    7546.2417    14099.303    445650.41 
   18200           91   0.50225282 0.0019627636    6507.1367    7533.0389    14040.176    444194.19 
   18300         91.5   0.49684067 0.0023347339    6458.9623    7451.8647    13910.827    442745.58 
   18400           92   0.50437189 0.0010019926    6463.4049    7564.8218    14028.227    441305.13 
   18500         92.5   0.50713602 0.00020711022    6443.8429    7606.2796    14050.123    439872.85 
   18600           93   0.50041253 0.0016030591    6440.4348    7505.4373    13945.872    438447.67 
   18700         93.5   0.50463274 0.0011546328    6461.4736    7568.7342    14030.208    437030.03 
   18800           94   0.49842179 0.00067766056    6560.4542    7475.5793    14036.033    435620.21 
   18900         94.5   0.49589884  0.001176918    6505.4707    7437.7387    13943.209    434217.81 
   19000           95   0.49943558 -0.001850099    6557.5507    7490.7845    14048.335    432823.09 
   19100         95.5   0.50288225  0.001929511    6539.4591    7542.4794    14081.938    431435.96 
   19200           96   0.49966492 0.0019959363     6521.561    7494.2243    14015.785    430056.73 
   19300         96.5   0.50454494 0.00024171893    6435.6097    7567.4173    14003.027     428684.5 
   19400           97   0.50021395 0.0016241458    6477.1225    7502.4589    13979.581     427319.4 
   19500         97.5   0.50112353 0.0021348443    6495.6183    7516.1013     14011.72    425961.92 
   19600           98   0.50215585 0.00014246511    6573.1338    7531.5846    14104.718    424612.03 
   19700         98.5   0.49730688 -0.00037505057    6504.0822    7458.8573    13962.939     423269.6 
   19800           99   0.50081298 0.0041669247    6425.7083    7511.4435    13937.152    421934.68 
   19900         99.5   0.49286046 0.0040034973    6458.1905    7392.1676    13850.358    420607.49 
   20000          100    0.4980779 0.0018302166    6459.7447    7470.4214    13930.166    419287.17 
   20100        100.5   0.49516643 0.00020671579    6476.1385    7426.7537    13902.892    417974.03 
   20200          101   0.49693915 0.0018580819     6386.025    7453.3418    13839.367    416666.94 
   20300        101.5   0.50236014 0.0016040797    6353.3086    7534.6486    13887.957    415366.16 
   20400          102   0.49804737 0.00092904772    6373.6754    7469.9635    13843.639    414071.82 
   20500        102.5   0.50440307 0.0028308641     6485.417    7565.2894    14050.706    412783.77 
   20600          103   0.50307207 0.0016206666    6479.9799    7545.3265    14025.306    411502.63 
   20700        103.5   0.50318951 0.0024303716    6402.2124    7547.0878      13949.3     410228.9 
   20800          104   0.50513646 0.00092577617    6412.9281    7576.2892    13989.217    408962.25 
   20900        104.5   0.49602299 -6.2407938e-05    6438.0832    7439.6009    13877.684    407701.99 
   21000          105    0.5010326 0.0010607197     6407.509    7514.7375    13922.246    406448.29 
   21100        105.5   0.50175702 0.0016771984    6440.2092    7525.6027    13965.812    405200.71 
   21200          106   0.50537359 -0.0019585756    6459.4568    7579.8458    14039.303    403959.58 
   21300        106.5   0.50136879 0.0015150793    6488.4616    7519.7797    14008.241    402724.05 
   21400          107   0.50686872 0.0019290102    6479.1759    7602.2706    14081.446    401495.42 
   21500        107.5   0.50360623 0.0026484297    6427.2862    7553.3381    13980.624    400273.05 
   21600          108   0.49801725 0.00092866255    6522.5349    7469.5118    13992.047    399056.74 
   21700        108.5   0.49753029 0.0019634695    6414.2948    7462.2081    13876.503    397845.98 
   21800          109   0.50014596 0.00054302951    6391.8504    7501.4391     13893.29    396641.42 
   21900        109.5   0.49462472 -0.00033634573    6354.1374    7418.6289    13772.766    395442.45 
   22000          110   0.49822377  0.003065019     6399.744    7472.6093    13872.353    394249.76 
   22100        110.5   0.48639245 0.0012123635     6402.676    7295.1572    13697.833    393063.73 
   22200          111   0.49345101 -0.0006581054    6311.8812     7401.025    13712.906    391883.94 
   22300        111.5   0.49627094 0.0018873343    6442.7167    7443.3196    13886.036    390710.12 
   22400          112   0.49440966 0.0022325254    6423.0665    7415.4033     13838.47     389542.3 
   22500        112.5   0.49700907 0.0036372329    6450.8078    7454.3905    13905.198     388380.2 
   22600          113   0.50362795 0.00081906793     6378.994    7553.6638    13932.658    387224.38 
   22700        113.5   0.50143076 -0.0010177723    6414.6068    7520.7092    13935.316    386074.37 
   22800          114   0.49907906 0.0012342571     6375.112    7485.4372    13860.549    384929.42 
   22900        114.5   0.49482223 0.0029966589    6372.2158    7421.5913    13793.807    383790.08 
   23000          115   0.49388546 0.0030658599    6404.4245     7407.541    13811.966    382656.84 
   23100        115.5   0.49694091 -0.0016846474    6373.7886    7453.3683    13827.157    381529.39 
   23200          116   0.49798393 -0.00076879977    6348.6752     7469.012    13817.687    380406.69 
   23300        116.5   0.49769884 0.0019279988     6298.621    7464.7361    13763.357    379289.22 
   23400          117   0.50144782 0.0043780516    6343.0567    7520.9651    13864.022    378177.65 
   23500        117.5   0.49888143 0.0037053924    6445.4556    7482.4731    13927.929    377072.07 
   23600          118   0.50218368 0.0040899979    6403.6661     7532.002    13935.668    375971.66 
   23700        118.5   0.50731246 -0.0028546608    6491.6013    7608.9259    14100.527    374876.87 
   23800          119   0.50031652 -0.0004207347    6429.2905    7503.9973    13933.288    373786.96 
   23900        119.5   0.50396538 0.0054363233     6339.369    7558.7248    13898.094    372702.06 
   24000          120   0.49597994 0.0050947006    6386.4787    7438.9551    13825.434    371622.73 
   24100        120.5   0.49643937 0.00013252444    6425.7971    7445.8458    13871.643    370548.78 
   24200          121     0.502375 0.00048155816    6418.1131    7534.8715    13952.985    369479.57 
   24300        121.5   0.50381227 0.0042967136     6462.918    7556.4283    14019.346    368415.31 
   24400          122   0.50093819 0.0038504163    6481.5838    7513.3215    13994.905    367356.23 
   24500        122.5   0.50268021 -0.00014664688    6392.7934    7539.4491    13932.243    366302.33 
   24600          123   0.49844211 -0.0011373886    6483.3499     7475.884    13959.234    365252.82 
   24700        123.5   0.49666973 0.0011789939    6501.8139     7449.301    13951.115    364208.13 
   24800          124   0.50243493 0.0041620968    6388.3515    7535.7703    13924.122    363168.62 
   24900        124.5   0.50448866 0.0042212993    6433.4209    7566.5732    13999.994    362134.19 
   25000          125    0.5037346 -0.0013601869    6456.0655    7555.2634    14011.329    361104.99 
   25100        125.5   0.49822578 -0.004852058    6523.8009    7472.6394     13996.44    360080.51 
   25200          126   0.49742185 0.00022455113    6429.0056    7460.5817    13889.587    359060.29 
   25300        126.5   0.49674754 0.0020926534    6444.5672     7450.468    13895.035    358045.04 
   25400          127    0.5085797 0.0030086914    6421.6295    7627.9326    14049.562    357034.55 
   25500        127.5   0.49702513 0.00030834193    6441.5116    7454.6314    13896.143    356029.15 
   25600          128   0.49032317 0.0013086306    6412.5088    7354.1121    13766.621    355028.47 
   25700        128.5   0.49920537 0.0019652299    6405.5336    7487.3318    13892.865    354032.45 
   25800          129   0.50889121 0.00040993722    6430.3741    7632.6047    14062.979    353041.33 
   25900        129.5   0.50374346 0.0014394135    6565.6891    7555.3963    14121.085    352054.55 
   26000          130    0.5021322 0.0041827663    6445.3493    7531.2299    13976.579    351072.28 
   26100        130.5   0.50099328 0.0016758782    6486.5329    7514.1476    14000.681    350095.13 
   26200          131   0.49903922 0.0025828132      6528.76    7484.8398      14013.6    349122.74 
   26300        131.5   0.49365946 0.0016019231    6497.1753    7404.1514    13901.327    348155.01 
   26400          132   0.50727895 0.0036977364    6356.4835    7608.4233    13964.907    347191.28 
   26500        132.5   0.49541213 0.0018563312    6459.1621    7430.4388    13889.601     346231.8 
   26600          133   0.50052116 0.0027415024    6501.9028    7507.0666    14008.969    345276.66 
   26700        133.5   0.49948628 -0.00043951007    6509.0968     7491.545    14000.642    344326.21 
   26800          134   0.50825886 0.0013691429    6454.4196    7623.1206     14077.54    343379.56 
   26900        134.5   0.50171453 0.0013439886    6475.4036    7524.9653    14000.369    342437.76 
   27000          135   0.49716403 -0.00040540471     6401.005    7456.7147     13857.72    341500.05 
   27100        135.5    0.4991818 -0.0015434458    6549.9527    7486.9783    14036.931    340566.49 
   27200          136   0.50162418 0.0033942816    6480.1362    7523.6103    14003.746    339636.97 
   27300        136.5   0.50149534 0.0028646353    6509.4093    7521.6778    14031.087    338711.65 
   27400          137   0.49852729 -0.00047797494    6533.3253    7477.1615    14010.487    337790.56 
   27500        137.5   0.50370303 0.0009708225    6440.4494    7554.7899    13995.239    336873.37 
   27600          138   0.50060029 0.0033337254    6502.6379    7508.2534    14010.891    335960.18 
   27700        138.5   0.49658157 0.0046361975     6530.102    7447.9786    13978.081     335051.3 
   27800          139    0.5021598 0.0021124355    6521.6317    7531.6438    14053.275    334147.01 
   27900        139.5   0.49962432  0.000168736     6425.465    7493.6154     13919.08    333246.66 
   28000          140   0.50191935 -0.0013964357    6404.0758    7528.0374    13932.113     332350.4 
   28100        140.5   0.49979482 0.0061900148     6463.283    7496.1726    13959.456    331457.97 
   28200          141   0.49887235 0.0051781117    6487.6443    7482.3369    13969.981    330570.05 
   28300        141.5   0.49139521 0.00085082703    6490.6398     7370.191    13860.831    329685.76 
   28400          142   0.49540927 -0.0013661729    6377.1992    7430.3959    13807.595     328805.2 
   28500        142.5   0.50031601 0.0019244991     6325.953    7503.9897    13829.943     327928.1 
   28600          143    0.4939287 0.0057591525    6402.4501    7408.1896     13810.64    327054.78 
   28700        143.5    0.4936499 0.0017992043     6405.395    7404.0081    13809.403    326185.46 
   28800          144   0.49724413 -0.0006476902    6398.1999    7457.9161    13856.116    325319.95 
   28900        144.5   0.50199049 0.0014803824    6450.1926    7529.1043    13979.297    324458.11 
   29000          145   0.49551149 0.0030117066    6507.5209     7431.929     13939.45    323599.68 
   29100        145.5   0.49961188 0.0044171313    6409.4563    7493.4288    13902.885    322745.03 
   29200          146   0.49871159 0.0015554297    6451.2724    7479.9257    13931.198    321895.04 
   29300        146.5   0.49994097 0.0010881002    6457.3103    7498.3646    13955.675    321048.94 
   29400          147   0.50860768 0.0040873223    6447.7958    7628.3524    14076.148    320206.49 
   29500        147.5    0.5018316 -0.00057318875    6470.4754    7526.7212    13997.197    319367.82 
   29600          148   0.50447857 -0.0013307099    6489.4972    7566.4219    14055.919    318532.66 
   29700        148.5   0.50141642 0.0057248861    6517.5334    7520.4942    14038.028     317700.7 
   29800          149   0.50390069 0.0038561501    6559.2576    7557.7545    14117.012    316872.22 
   29900        149.5   0.50190662 0.0013323717     6542.283    7527.8464    14070.129    316046.99 
   30000          150   0.50906901  0.001257969    6378.4814    7635.2716    14013.753    315225.78 
   30100        150.5   0.50294511 0.00093405679    6479.8469    7543.4223    14023.269    314408.32 
   30200          151   0.50339607 0.0054497446    6481.8566     7550.186    14032.043    313593.92 
   30300        151.5   0.49912742 -0.0010310689    6395.3374    7486.1626      13881.5     312783.4 
   30400          152   0.49592678 0.0014295211    6474.9205    7438.1577    13913.078     311976.3 
   30500        152.5    0.5051448 0.0054930208    6498.5582    7576.4143    14074.973    311172.69 
   30600          153   0.50289551 0.0035968854    6497.1586    7542.6783    14039.837    310372.68 
   30700        153.5   0.50032476 -0.00020547375    6532.7016    7504.1209    14036.822    309575.99 
   30800          154    0.5006111 0.00049122159    6482.2442    7508.4156     13990.66    308782.26 
   30900        154.5   0.49865888 0.0019741235    6487.4517    7479.1352    13966.587    307992.23 
   31000          155   0.50105665 0.0024431272    6516.7015    7515.0982      14031.8    307205.23 
   31100        155.5   0.49821075 0.0011693212    6528.8601     7472.414    14001.274    306421.61 
   31200          156   0.49754456 -0.00050743274    6450.3581    7462.4221     13912.78    305641.46 
   31300        156.5   0.49260785 0.0024894177    6459.0883    7388.3788    13847.467    304864.19 
   31400          157   0.50055095 0.0081166605      6387.06    7507.5135    13894.574    304089.98 
   31500        157.5   0.50641574 0.0026164982    6444.6991    7595.4765    14040.176    303319.38 
   31600          158    0.5001074  0.001182834    6576.3145    7500.8608    14077.175    302551.97 
   31700        158.5    0.5017276 0.00092509307    6518.2864    7525.1614    14043.448    301787.76 
   31800          159    0.5069974 0.0038266581    6555.3345    7604.2005    14159.535    301026.34 
   31900        159.5   0.50487081 0.0020808116    6493.7101    7572.3048    14066.015    300268.37 
   32000          160   0.50209116 -0.00065415845    6434.3871    7530.6143    13965.001    299513.67 
   32100        160.5   0.50138917 0.0024087479    6397.0221    7520.0855    13917.108    298761.57 
   32200          161   0.49843695 0.0018142496    6426.6145    7475.8066    13902.421    298012.82 
   32300        161.5   0.49903606 0.0031167578    6480.1246    7484.7924    13964.917    297266.97 
   32400          162   0.50190479 0.0027895006    6473.0439     7527.819    14000.863    296524.47 
   32500        162.5   0.50475978 0.00054469144    6472.9553    7570.6395    14043.595    295785.31 
   32600          163   0.50186156 0.0016494416    6456.0135    7527.1706    13983.184    295049.12 
   32700        163.5   0.49778104 0.0047332371      6365.49    7465.9689    13831.459     294315.6 
   32800          164   0.49803208 0.0036874312    6392.1596    7469.7342    13861.894    293585.21 
   32900        164.5   0.49825011  0.002360791    6403.1965    7473.0042    13876.201    292857.84 
   33000          165   0.50083478 0.0028165522    6406.4126    7511.7704    13918.183    292133.82 
   33100        165.5    0.4983233 0.0038741743    6381.5039     7474.102    13855.606    291412.76 
   33200          166   0.49677312 0.0032891691    6411.1692    7450.8517    13862.021    290694.47 
   33300        166.5   0.49563051 0.0033468453    6422.2681    7433.7142    13855.982    289979.17 
   33400          167   0.50072034 0.0013463975    6399.1869     7510.054    13909.241    289266.67 
   33500        167.5   0.49993074 0.00048452934     6464.381    7498.2113    13962.592    288556.61 
   33600          168   0.50509181 0.00086389567    6450.6703    7575.6195     14026.29    287849.44 
   33700        168.5   0.50775297 0.0026160918    6467.9743     7615.533    14083.507    287144.99 
   33800          169   0.50069286 0.0060835449    6452.5973    7509.6419    13962.239    286443.41 
   33900        169.5   0.50467383 0.0033758035    6481.0937    7569.3504    14050.444    285744.98 
   34000          170    0.4969762 -0.0027207399    6489.5665    7453.8975    13943.464    285049.34 
   34100        170.5   0.50544146 -2.9575218e-05    6424.7885    7580.8638    14005.652    284356.19 
   34200          171   0.50415152 0.0047184258    6519.0221    7561.5166    14080.539    283666.38 
   34300        171.5   0.50524869 0.0085145609    6448.0245    7577.9725    14025.997    282979.35 
   34400          172   0.50054549 0.00069337819    6515.0721    7507.4316    14022.504    282295.12 
   34500        172.5   0.49807639 0.0020094163    6452.1223    7470.3987    13922.521    281612.98 
   34600          173    0.4998811 -0.00033051718    6447.8349    7497.4667    13945.302    280933.58 
   34700        173.5   0.49405315 0.0012575358    6482.6153    7410.0561    13892.671    280256.85 
   34800          174   0.50505133 0.0059143959    6384.6202    7575.0124    13959.633    279582.85 
   34900        174.5   0.50126144 0.0053376636    6502.6145    7518.1697    14020.784    278911.64 
   35000          175    0.5014547 0.00069922122    6444.4249    7521.0684    13965.493    278243.13 
   35100        175.5   0.50299396 -0.0017088705    6406.8489    7544.1549    13951.004    277577.13 
   35200          176   0.49680191 0.0028899056    6431.6064    7451.2835     13882.89    276913.29 
   35300        176.5   0.49549386 0.0046241766    6519.3295    7431.6647    13950.994    276252.33 
   35400          177   0.49801041 0.0021422544    6496.6698    7469.4091    13966.079    275594.15 
   35500        177.5   0.49925456 0.0001391388     6450.594    7488.0695    13938.664     274938.3 
   35600          178   0.50456329 0.0026644731    6480.6889    7567.6925    14048.381    274284.81 
   35700        178.5   0.50101631 0.0028881118    6511.5721    7514.4932    14026.065    273634.12 
   35800          179   0.50575972 0.0011160936    6455.7657    7585.6371    14041.403    272986.07 
   35900        179.5   0.50531197 0.0022521007    6453.2428    7578.9216    14032.164    272340.57 
   36000          180   0.50344705 0.0025549408    6496.0882    7550.9506    14047.039    271697.87 
   36100        180.5   0.49864944 0.0046543579    6482.6055    7478.9936    13961.599    271057.57 
   36200          181   0.50386929 0.0033064606    6399.6514    7557.2836    13956.935    270419.76 
   36300        181.5   0.50195675 0.0012136238    6422.4619    7528.5982     13951.06    269784.57 
   36400          182   0.50359003 0.0026366628    6445.0902     7553.095    13998.185    269151.61 
   36500        182.5   0.49619875 -0.0015838814    6447.2842    7442.2369    13889.521    268521.17 
   36600          183   0.49690001 0.0037263933    6484.8506    7452.7548    13937.605    267893.08 
   36700        183.5   0.50027172 0.0056071082    6523.1304    7503.3253    14026.456    267267.73 
   36800          184   0.49857501 0.0018112973    6479.1669    7477.8773    13957.044    266644.78 
   36900        184.5   0.50156035 -0.0019506129    6451.5975    7522.6529     13974.25    266024.04 
   37000          185   0.49465674 0.00024881504    6395.2141    7419.1091    13814.323    265405.18 
   37100        185.5   0.49596291 0.0059528803    6425.8419    7438.6997    13864.542    264788.58 
   37200          186   0.49478994 0.0021815421     6486.008    7421.1069    13907.115    264174.59 
   37300        186.5   0.49863016 0.0010997487    6412.0939    7478.7044    13890.798    263562.93 
   37400          187   0.50219102 0.00088351768    6437.6985     7532.112    13969.811    262954.03 
   37500        187.5   0.50037048 0.0069704563    6411.0201    7504.8066    13915.827    262347.32 
   37600          188   0.49824953 0.0024488825    6449.6945    7472.9955     13922.69    261743.55 
   37700        188.5   0.50225702 0.0016427166    6453.0924    7533.1019    13986.194    261141.59 
   37800          189   0.50147236 0.0044232622    6443.5621    7521.3332    13964.895    260541.73 
   37900        189.5   0.49789291 0.0054048272    6496.0995    7467.6467    13963.746    259944.16 
   38000          190    0.5072898 0.0062113964    6451.9229    7608.5861    14060.509     259348.6 
   38100        190.5   0.50333837 0.0062709429    6442.9386    7549.3205    13992.259    258755.43 
   38200          191    0.4972364 -0.00096991065    6475.4733    7457.8002    13933.273    258164.94 
   38300        191.5   0.50363555 0.0035155219    6441.3435    7553.7778    13995.121    257576.04 
   38400          192   0.49627406 0.0031986784    6411.0315    7443.3665    13854.398     256989.4 
   38500        192.5    0.4980033 0.0026484352    6458.9769    7469.3025    13928.279    256404.85 
   38600          193   0.50107766 0.0048812496    6362.6174    7515.4133    13878.031    255822.45 
   38700        193.5   0.49947852 0.0070744202    6472.2205    7491.4285    13963.649    255242.34 
   38800          194   0.49837829 -0.00048083882    6459.6109    7474.9268    13934.538    254664.71 
   38900        194.5   0.49547759  0.001484732    6456.9428    7431.4207    13888.363    254089.01 
   39000          195   0.50118946 0.0039562791    6458.2724    7517.0901    13975.362    253515.21 
   39100        195.5   0.49356478 0.0024423538     6523.897    7402.7313    13926.628    252942.98 
   39200          196   0.49311589 0.0014620702    6544.7416    7395.9987     13940.74    252372.61 
   39300        196.5   0.50220619 0.0023259331    6458.2984    7532.3396    13990.638    251804.59 
   39400          197   0.49893788 -0.00082651698    6446.4238    7483.3198    13929.744    251239.05 
   39500        197.5   0.50073513 0.0043134295    6446.0581    7510.2759    13956.334     250675.8 
   39600          198   0.50071072 0.0042261322    6431.4569    7509.9097    13941.367    250114.82 
   39700        198.5   0.49220293 0.0037676114    6409.9949    7382.3057    13792.301    249555.87 
   39800          199   0.48956529 -0.0015023357    6456.5094    7342.7451    13799.254    248998.99 
   39900        199.5   0.49684701 0.00071771361    6468.8172    7451.9599    13920.777    248444.43 
   40000          200   0.49633315 0.0052322434    6500.2412    7444.2527    13944.494     247891.8 
   40100        200.5   0.50149211 0.0046034018     6499.367    7521.6295    14020.996     247341.3 
   40200          201   0.50136604 0.0020962605    6445.6694    7519.7385    13965.408    246792.72 
   40300        201.5   0.50176377 0.0011954169    6478.6649    7525.7039    14004.369    246245.59 
   40400          202    0.5005642 -0.00099379804    6582.9981    7507.7122     14090.71    245700.26 
   40500        202.5   0.50757325 0.0044811443    6431.3556    7612.8374    14044.193    245156.92 
   40600          203   0.50644028  0.002234365    6460.9945    7595.8445    14056.839    244615.71 
   40700        203.5     0.502918 0.0049402335    6475.6395    7543.0156    14018.655    244076.35 
   40800          204   0.49918546 -0.00023805703    6512.1946    7487.0331    13999.228    243539.06 
   40900        204.5   0.49422602 -0.0026042769    6486.0853    7412.6489    13898.734    243003.77 
   41000          205   0.49913093 0.0014298743    6452.0218    7486.2153    13938.237    242470.56 
   41100        205.5   0.50406647 0.0073024862     6567.479     7560.241     14127.72    241939.06 
   41200          206   0.49998977 0.0061202503    6427.9163    7499.0965    13927.013    241409.78 
   41300        206.5   0.50220316 -0.00073840361    6426.4933     7532.294    13958.787    240882.56 
   41400          207   0.50200566 0.0024689105    6452.5357    7529.3319    13981.868    240356.69 
   41500        207.5   0.50572715 0.0062296196    6486.3059    7585.1487    14071.455    239832.94 
   41600          208   0.49270966 0.0024393113    6576.8071    7389.9059    13966.713    239311.25 
   41700        208.5   0.50338989 0.0035313416    6516.9412    7550.0932    14067.034    238791.09 
   41800          209   0.50639323 -0.0022196958    6445.4901    7595.1389    14040.629    238272.91 
   41900        209.5   0.49333404 -0.0007137215    6514.2613    7399.2706    13913.532    237756.49 
   42000          210    0.5022646 0.0043438038    6492.3343    7533.2156     14025.55    237241.89 
   42100        210.5   0.50450894 0.0083405905    6452.4015    7566.8774    14019.279    236729.03 
   42200          211   0.50437639 0.0044897547    6475.0161    7564.8894    14039.905    236218.13 
   42300        211.5   0.50593245 -0.0011100064    6414.8156    7588.2278    14003.043    235709.08 
   42400          212   0.50251927 0.00024840092    6472.5216    7537.0352    14009.557     235201.5 
   42500        212.5   0.50289514 0.0067709375    6497.0464    7542.6727    14039.719    234695.99 
   42600          213   0.50865133  0.007191064     6481.162     7629.007    14110.169    234192.33 
   42700        213.5    0.4973198 0.0036793186    6503.5661     7459.051    13962.617     233690.1 
   42800          214   0.49835665 0.0018708032    6498.1937    7474.6022    13972.796    233189.78 
   42900        214.5   0.49352492 -0.00090024287    6468.3189    7402.1335    13870.452     232691.2 
   43000          215   0.49224785 0.0039062453    6419.4543    7382.9794    13802.434    232194.09 
   43100        215.5   0.49592931 0.0010344288    6373.3544    7438.1958     13811.55    231699.01 
   43200          216   0.49731222 0.0010488783    6425.5678    7458.9373    13884.505    231205.86 
   43300        216.5   0.49589299 0.0085766028    6508.6539    7437.6511    13946.305    230714.35 
   43400          217   0.49761778 0.0020369207    6396.3541    7463.5203    13859.874    230224.74 
   43500        217.5   0.49553862 -0.0037125352    6376.6792     7432.336    13809.015     229736.6 
   43600          218   0.50386754 0.0058388131    6384.5074    7557.2572    13941.765    229250.13 
   43700        218.5   0.49993731 0.0063432028    6381.6324    7498.3098    13879.942    228765.56 
   43800          219   0.50088179 0.0073713465     6449.094    7512.4755     13961.57    228282.55 
   43900        219.5   0.50272824 -0.0025607475    6442.4463    7540.1695    13982.616    227801.51 
   44000          220   0.50073184 -0.0037899385    6480.5963    7510.2265    13990.823    227321.79 
   44100        220.5   0.49603945 0.0043336213    6520.3635    7439.8477    13960.211    226843.23 
   44200          221   0.49861623  0.006974687    6465.0649    7478.4956     13943.56    226366.58 
   44300        221.5   0.49268672 0.0069954951    6440.9205    7389.5618    13830.482    225891.83 
   44400          222   0.50270202 0.00082899752    6305.9511    7539.7763    13845.727    225418.71 
   44500        222.5   0.49829666 -4.2218742e-06    6365.1042    7473.7024    13838.807    224947.05 
   44600          223   0.49000147 0.0024195115    6412.7258     7349.287    13762.013    224477.26 
   44700        223.5   0.49774418 0.0080857695    6404.2796     7465.416    13869.696    224009.11 
   44800          224   0.49753361  0.005926094    6455.5957    7462.2578    13917.854    223542.57 
   44900        224.5   0.49905415 -0.0014703293    6414.9911    7485.0637    13900.055    223077.62 
   45000          225   0.49861505 0.0015711787    6425.5197    7478.4778    13903.997    222614.29 
   45100        225.5   0.49781316 0.0033583758    6399.4772    7466.4506    13865.928    222152.56 
   45200          226   0.50251998 0.0060338707    6449.8541    7537.0459      13986.9     221692.4 
   45300        226.5   0.50419147 0.00064589703    6426.9779    7562.1157    13989.094    221234.04 
   45400          227   0.49779303 0.0012589282    6580.0709    7466.1487     14046.22    220777.09 
   45500        227.5   0.49878678  0.007178908    6556.4092    7481.0536    14037.463    220321.32 
   45600          228   0.50321069 0.0016633128    6508.9315    7547.4056    14056.337    219867.62 
   45700        228.5   0.50423678 0.0013126004      6451.99    7562.7953    14014.785    219415.24 
   45800          229   0.50168179 0.0040576946     6433.727    7524.4744    13958.201    218963.74 
   45900        229.5   0.49591302 0.0023114776    6424.2091    7437.9515    13862.161    218513.61 
   46000          230   0.50227103 0.0013460043    6471.6507     7533.312    14004.963    218064.87 
   46100        230.5   0.50144625 0.0012113307    6539.3527    7520.9416    14060.294    217617.73 
   46200          231   0.49856138 -0.0030802642    6637.9337    7477.6729    14115.607    217172.46 
   46300        231.5    0.5046936 0.0046967897    6409.1076    7569.6469    13978.755    216728.52 
   46400          232   0.50375932 0.0083730061    6463.7971    7555.6342    14019.431    216286.02 
   46500        232.5   0.50217233 0.0018609591    6507.1727    7531.8317    14039.004    215845.22 
   46600          233   0.49927042 0.0048122106    6454.6394    7488.3074    13942.947     215405.8 
   46700        233.5   0.50245285 0.0011451663    6536.7829    7536.0391    14072.822    214968.25 
   46800          234   0.49975587 -0.0031845049    6475.3021    7495.5884    13970.891    214532.17 
   46900        234.5   0.50551848 0.0058973885    6385.8599    7582.0189    13967.879     214097.4 
   47000          235   0.49949612 0.0056360323      6331.85    7491.6925    13823.543    213664.32 
   47100        235.5   0.49645205 0.0048855446    6426.3131    7446.0361    13872.349     213232.4 
   47200          236   0.49644438 0.0011862917    6428.6437     7445.921    13874.565    212801.95 
   47300        236.5   0.49711736 0.00012902685     6434.247    7456.0147    13890.262    212372.92 
   47400          237   0.49511203 0.0065736842    6482.3851    7425.9377    13908.323    211945.25 
   47500        237.5   0.50735043 0.0075238606    6393.3612    7609.4954    14002.857    211518.88 
   47600          238   0.50343384 0.0058447317    6485.4757    7550.7524    14036.228    211093.67 
   47700        238.5   0.50974589 0.0013632142    6436.9961    7645.4237     14082.42    210670.04 
   47800          239   0.50389182 0.00025565356    6407.4141    7557.6214    13965.035    210247.68 
   47900        239.5   0.49795889 0.0074680156     6496.458    7468.6364    13965.094    209826.72 
   48000          240   0.49443965  0.012813925    6507.8688    7415.8531    13923.722    209407.22 
   48100        240.5   0.50804133 0.0053544727    6368.0585    7619.8579    13987.916    208989.25 
   48200          241    0.4970521 -0.0074761758    6470.9644    7455.0359        13926    208572.71 
   48300        241.5    0.5063237 -0.0018336691    6399.7436     7594.096     13993.84    208157.16 
   48400          242   0.50100114  0.010671915    6380.4165    7514.2656    13894.682    207742.73 
   48500        242.5   0.50253333 0.0083720581    6419.4744    7537.2461     13956.72    207329.92 
   48600          243   0.50171636 -0.0015038079    6409.0833    7524.9929    13934.076    206918.69 
   48700        243.5   0.50217689 -0.0025708116    6350.9571    7531.9001    13882.857    206508.48 
   48800          244   0.50170558  0.003607717     6464.601    7524.8311    13989.432    206099.25 
   48900        244.5   0.50071787  0.003750781    6409.7573     7510.017    13919.774    205691.65 
   49000          245   0.49861979 0.0011884736    6501.4542     7478.549    13980.003    205285.65 
   49100        245.5   0.50571258 0.0048385515    6534.8962    7584.9301    14119.826    204880.91 
   49200          246   0.50192124 0.0057856463    6529.2364    7528.0657    14057.302    204477.45 
   49300        246.5   0.50618445 0.0090176858    6495.5432    7592.0074    14087.551    204075.23 
   49400          247   0.50178653 0.0018056293    6475.4161    7526.0452    14001.461    203674.24 
   49500        247.5   0.50419099 -0.0020667312    6388.2638    7562.1086    13950.372    203274.44 
   49600          248   0.49975324 -0.0034461902     6502.108     7495.549    13997.657    202876.06 
   49700        248.5   0.50363189 0.0023007912    6386.4659    7553.7229    13940.189    202478.97 
   49800          249   0.49533183 0.0081471845    6470.2298    7429.2345    13899.464    202083.05 
   49900        249.5   0.49478694 0.0048994998    6513.6624     7421.062    13934.724    201688.91 
   50000          250   0.49603814 2.9686728e-05    6384.2762     7439.828    13824.104    201295.91 
Loop time of 94.6997 on 1 procs for 50000 steps with 10000 atoms

Performance: 228089.392 tau/day, 527.985 timesteps/s
97.7% CPU use with 1 MPI tasks x 1 OpenMP threads

MPI task timing breakdown:
Section |  min time  |  avg time  |  max time  |%varavg| %total
---------------------------------------------------------------
Pair    | 3.554      | 3.554      | 3.554      |   0.0 |  3.75
Bond    | 36.914     | 36.914     | 36.914     |   0.0 | 38.98
Neigh   | 17.135     | 17.135     | 17.135     |   0.0 | 18.09
Comm    | 1.5101     | 1.5101     | 1.5101     |   0.0 |  1.59
Output  | 1.3759     | 1.3759     | 1.3759     |   0.0 |  1.45
Modify  | 33.305     | 33.305     | 33.305     |   0.0 | 35.17
Other   |            | 0.9045     |            |       |  0.96

Nlocal:    10000 ave 10000 max 10000 min
Histogram: 1 0 0 0 0 0 0 0 0 0
Nghost:    1745 ave 1745 max 1745 min
Histogram: 1 0 0 0 0 0 0 0 0 0
Neighs:    633 ave 633 max 633 min
Histogram: 1 0 0 0 0 0 0 0 0 0

Total # of neighbors = 633
Ave neighs/atom = 0.0633
Ave special neighs/atom = 4.8
Neighbor list builds = 4647
Dangerous builds = 1927

unfix 2
unfix 3
fix 4 all nve
fix 5 all langevin ${T} ${T} 1 123456
fix 5 all langevin 0.5 ${T} 1 123456
fix 5 all langevin 0.5 0.5 1 123456
fix recen1 all recenter INIT INIT INIT


# RUN
run ${run_steps}
run 50000
Per MPI rank memory allocation (min/avg/max) = 21.3 | 21.3 | 21.3 Mbytes
Step Time Temp Press PotEng KinEng TotEng Volume 
   50000          250   0.49603814 2.9686728e-05    6384.2762     7439.828    13824.104    201295.91 
   50100        250.5   0.49668518 -0.0011110495    6368.0733    7449.5327    13817.606    201295.91 
   50200          251   0.50030454 0.0052890777    6410.6727    7503.8176     13914.49    201295.91 
   50300        251.5   0.49779262 0.0059619419    6457.2382    7466.1426    13923.381    201295.91 
   50400          252   0.49623518  0.003252419    6525.1883    7442.7834    13967.972    201295.91 
   50500        252.5   0.50227826 0.0018095128     6465.944    7533.4205    13999.365    201295.91 
   50600          253   0.50708996 0.00093821259    6392.5312    7605.5887     13998.12    201295.91 
   50700        253.5   0.50494079 0.0064103606    6467.4262    7573.3544    14040.781    201295.91 
   50800          254   0.49834721 -0.00095857559    6479.9353    7474.4607    13954.396    201295.91 
   50900        254.5   0.50350517 -0.0011621869    6532.1942    7551.8223    14084.016    201295.91 
   51000          255   0.49859755 0.0058058571    6527.3084    7478.2154    14005.524    201295.91 
   51100        255.5    0.5033235 0.0048261889     6520.686    7549.0975    14069.784    201295.91 
   51200          256    0.5050686 -0.0031854449     6514.837    7575.2714    14090.108    201295.91 
   51300        256.5   0.50239307 0.0015761417    6498.0702    7535.1424    14033.213    201295.91 
   51400          257   0.50377072 0.0058721814    6468.7071    7555.8051    14024.512    201295.91 
   51500        257.5   0.50398782 0.00016242827    6566.3412    7559.0614    14125.403    201295.91 
   51600          258   0.51100195 0.00029142192    6470.5317    7664.2627    14134.794    201295.91 
   51700        258.5   0.50257206 0.0050927336    6446.8444    7537.8271    13984.672    201295.91 
   51800          259   0.50240837 0.0028699081     6450.176    7535.3719    13985.548    201295.91 
   51900        259.5   0.49713192 -0.0013676364    6406.7298    7456.2331    13862.963    201295.91 
   52000          260   0.49702123   0.00108809    6480.3425     7454.573    13934.915    201295.91 
   52100        260.5   0.50156649 0.0032298518    6473.5781     7522.745    13996.323    201295.91 
   52200          261   0.49807814 0.0068306739    6469.5948     7470.425     13940.02    201295.91 
   52300        261.5   0.50056101 0.0052581539    6366.4542    7507.6643    13874.119    201295.91 
   52400          262   0.50467402 -0.0032681081    6402.5559    7569.3532    13971.909    201295.91 
   52500        262.5   0.49968544 -0.0018830172    6505.2921    7494.5321    13999.824    201295.91 
   52600          263   0.49876636 0.0050407124    6452.7648    7480.7472    13933.512    201295.91 
   52700        263.5   0.49988909  0.002619868    6525.3911    7497.5865    14022.978    201295.91 
   52800          264   0.49954017 -0.0011676301    6453.2699    7492.3532    13945.623    201295.91 
   52900        264.5   0.50368334 0.0073913757    6617.4275    7554.4945    14171.922    201295.91 
   53000          265   0.49847859  0.006271038     6506.903    7476.4311    13983.334    201295.91 
   53100        265.5   0.50606686 0.00023253855    6467.4098    7590.2438    14057.654    201295.91 
   53200          266   0.50438638 -0.00057132025    6390.9314    7565.0391     13955.97    201295.91 
   53300        266.5   0.49858572 0.0033594297    6541.3515    7478.0379    14019.389    201295.91 
   53400          267   0.49701881 0.0072360473    6427.6737    7454.5366     13882.21    201295.91 
   53500        267.5   0.50000949 0.0077942578    6392.2175    7499.3924     13891.61    201295.91 
   53600          268   0.50290683 0.0034832016    6436.1213    7542.8481    13978.969    201295.91 
   53700        268.5   0.49821062 -0.001913074    6543.8615    7472.4119    14016.273    201295.91 
   53800          269   0.50500605 0.0017709874    6383.2338    7574.3333    13957.567    201295.91 
   53900        269.5   0.50226345  0.004974797    6379.4819    7533.1983     13912.68    201295.91 
   54000          270   0.49781319 0.0051636038    6479.5611    7466.4512    13946.012    201295.91 
   54100        270.5   0.50118428 0.0016184036    6454.7853    7517.0124    13971.798    201295.91 
   54200          271   0.49563485 0.0032500965    6436.1579    7433.7793    13869.937    201295.91 
   54300        271.5    0.4983111 0.0039888514    6377.5284    7473.9191    13851.447    201295.91 
   54400          272     0.498346 0.0038099681    6463.5692    7474.4425    13938.012    201295.91 
   54500        272.5   0.49777822 0.0020497153    6394.7599    7465.9267    13860.687    201295.91 
   54600          273   0.49740132  0.003891172    6404.5462    7460.2737     13864.82    201295.91 
   54700        273.5     0.501551 0.0074226443    6388.8984    7522.5126    13911.411    201295.91 
   54800          274   0.50194091 -0.0016210296    6379.3967    7528.3608    13907.757    201295.91 
   54900        274.5   0.50405916 -0.0011256741    6424.5644    7560.1313    13984.696    201295.91 
   55000          275   0.49601205 0.0014824621    6469.6819    7439.4368    13909.119    201295.91 
   55100        275.5   0.49760042  0.009568185    6484.7986    7463.2599    13948.059    201295.91 
   55200          276   0.49795618 0.0019912471    6451.5068    7468.5958    13920.103    201295.91 
   55300        276.5   0.49835853 -0.0015061069    6431.5387    7474.6305    13906.169    201295.91 
   55400          277   0.49612994 3.8634085e-05    6489.4507     7441.205    13930.656    201295.91 
   55500        277.5   0.49615543  0.011044203    6418.9484    7441.5872    13860.536    201295.91 
   55600          278   0.49056177 0.00042182518    6479.5894    7357.6906     13837.28    201295.91 
   55700        278.5   0.49755763 -0.0022465987    6489.8338    7462.6181    13952.452    201295.91 
   55800          279   0.49910518 0.0030223691    6428.4995    7485.8291    13914.329    201295.91 
   55900        279.5    0.4996319 0.0031932455    6467.9974    7493.7291    13961.726    201295.91 
   56000          280   0.50258819 0.0075819668     6438.314    7538.0689    13976.383    201295.91 
   56100        280.5   0.49994696 0.00025320476      6377.87    7498.4545    13876.325    201295.91 
   56200          281    0.4957229 0.0012661893    6504.5055       7435.1    13939.606    201295.91 
   56300        281.5   0.49467728 0.0078339443    6498.8972    7419.4173    13918.314    201295.91 
   56400          282   0.49750907 0.0096498968    6492.0153    7461.8898    13953.905    201295.91 
   56500        282.5   0.50524879 0.0057181658    6486.4257     7577.974      14064.4    201295.91 
   56600          283   0.49347979 -0.0029355915    6531.5441    7401.4566    13933.001    201295.91 
   56700        283.5   0.50544554 -0.0025022461    6407.2365    7580.9249    13988.161    201295.91 
   56800          284   0.50028178 0.0026304963     6398.517    7503.4763    13901.993    201295.91 
   56900        284.5   0.49636734 0.0037206643    6437.3352    7444.7656    13882.101    201295.91 
   57000          285   0.50215548   0.01086521    6392.8047    7531.5789    13924.384    201295.91 
   57100        285.5    0.4979411 -0.0017076358    6519.8861    7468.3695    13988.256    201295.91 
   57200          286    0.5041269 0.0030108773    6340.7587    7561.1473    13901.906    201295.91 
   57300        286.5   0.50029497 0.0045442134    6495.8565    7503.6741    13999.531    201295.91 
   57400          287   0.50733145 0.00039781175    6487.8696    7609.2107     14097.08    201295.91 
   57500        287.5   0.49868656 -0.0023071044    6512.3064    7479.5503    13991.857    201295.91 
   57600          288   0.50056086 -0.00082735953    6468.8994     7507.662    13976.561    201295.91 
   57700        288.5     0.498705 0.0070587964    6425.1493    7479.8269    13904.976    201295.91 
   57800          289   0.50201501 0.0081204342    6448.9385    7529.4721    13978.411    201295.91 
   57900        289.5   0.50057135  0.000960072    6533.5042    7507.8194    14041.324    201295.91 
   58000          290   0.50349808 -0.00018395749    6533.6121     7551.716    14085.328    201295.91 
   58100        290.5   0.50577893 -0.0027345541    6482.5386    7585.9252    14068.464    201295.91 
   58200          291   0.50452901 -0.001469039    6494.2253    7567.1783    14061.404    201295.91 
   58300        291.5   0.50305422 0.0085762506    6545.7777    7545.0587    14090.836    201295.91 
   58400          292   0.50478243 0.0085652955    6438.6708    7570.9792     14009.65    201295.91 
   58500        292.5   0.49446226 0.0021354386    6541.3575    7416.1922     13957.55    201295.91 
   58600          293   0.50514753 0.0025558697    6467.8717    7576.4552    14044.327    201295.91 
   58700        293.5   0.50616232 0.0059220713    6422.0779    7591.6755    14013.753    201295.91 
   58800          294   0.50066956 -0.00010770277    6501.9614    7509.2924    14011.254    201295.91 
   58900        294.5   0.50872788 -0.0018008822    6469.3761    7630.1552    14099.531    201295.91 
   59000          295   0.49894778 0.0068762078    6574.7901    7483.4683    14058.258    201295.91 
   59100        295.5   0.49558017 0.0073775529    6475.5776    7432.9592    13908.537    201295.91 
   59200          296   0.49522987 0.0013086887    6554.9954    7427.7052    13982.701    201295.91 
   59300        296.5   0.49917092 0.0034172608    6478.0514    7486.8151    13964.866    201295.91 
   59400          297   0.50540298 0.00095676895    6458.8148    7580.2866    14039.101    201295.91 
   59500        297.5   0.50628966  0.006579876    6426.0638    7593.5855    14019.649    201295.91 
   59600          298    0.4969464 0.0049042565    6407.5205    7453.4506    13860.971    201295.91 
   59700        298.5   0.49315422 0.0015757054    6461.6351    7396.5735    13858.209    201295.91 
   59800          299   0.49577823 -0.002823302    6425.7861    7435.9299    13861.716    201295.91 
   59900        299.5    0.4995844 0.0031702389    6401.7579    7493.0167    13894.775    201295.91 
   60000          300   0.49550508 0.0099003207    6433.4569     7431.833     13865.29    201295.91 
   60100        300.5   0.49275696 0.0042438857    6417.9911    7390.6153    13808.606    201295.91 
   60200          301   0.49375427 -0.0029231842    6471.6046    7405.5734    13877.178    201295.91 
   60300        301.5   0.49452688 -0.00027441327    6471.5943    7417.1614    13888.756    201295.91 
   60400          302   0.49350982 0.0073280031    6410.1283     7401.907    13812.035    201295.91 
   60500        302.5   0.49655817  0.008284203    6492.1776    7447.6276    13939.805    201295.91 
   60600          303   0.49573944 0.0012379565    6463.7174     7435.348    13899.065    201295.91 
   60700        303.5   0.49596625 -0.003406647    6431.9191    7438.7498    13870.669    201295.91 
   60800          304   0.49553188 0.0065176037    6407.3922    7432.2349    13839.627    201295.91 
   60900        304.5    0.4968763 0.0059727709    6424.1714    7452.3992    13876.571    201295.91 
   61000          305   0.50504837 -0.00049451434    6499.1395    7574.9679    14074.107    201295.91 
   61100        305.5   0.50271488 -0.0031878428    6472.3338    7539.9692    14012.303    201295.91 
   61200          306   0.50518042 0.0020443045    6465.1702    7576.9486    14042.119    201295.91 
   61300        306.5   0.49775733 0.0062802389    6548.8738    7465.6133    14014.487    201295.91 
   61400          307   0.50034717 0.00027864353    6520.8482     7504.457    14025.305    201295.91 
   61500        307.5   0.49549495 -0.0013168296    6477.7915     7431.681    13909.472    201295.91 
   61600          308   0.50008421 0.0018897409    6400.8658     7500.513    13901.379    201295.91 
   61700        308.5   0.49878619 0.0038742862    6440.8041    7481.0447    13921.849    201295.91 
   61800          309   0.49843629 0.0050915734    6431.0894    7475.7967    13906.886    201295.91 
   61900        309.5   0.49428813 0.0011211748    6545.7297    7413.5805     13959.31    201295.91 
   62000          310   0.49283666 -0.00040801111    6546.0236    7391.8107    13937.834    201295.91 
   62100        310.5   0.49518219 0.0048190518    6444.6083    7426.9901    13871.598    201295.91 
   62200          311   0.49750781 0.0095988079     6469.666    7461.8709    13931.537    201295.91 
   62300        311.5   0.50185769 -0.0016236281      6472.49    7527.1126    13999.603    201295.91 
   62400          312   0.50480748 -0.0023813036    6420.6515     7571.355    13992.007    201295.91 
   62500        312.5   0.50308429 0.0058553437    6495.5114    7545.5097    14041.021    201295.91 
   62600          313   0.50153586 0.0044289359    6507.7969    7522.2855    14030.082    201295.91 
   62700        313.5   0.50378979 0.0061407634    6576.2345    7556.0911    14132.326    201295.91 
   62800          314   0.49938066 0.0025106882    6493.7458    7489.9608    13983.707    201295.91 
   62900        314.5   0.50488986 0.0030494162     6504.042    7572.5905    14076.633    201295.91 
   63000          315   0.50269296  0.006162605    6575.0824    7539.6403    14114.723    201295.91 
   63100        315.5   0.50294075 0.0053292719     6530.213    7543.3568     14073.57    201295.91 
   63200          316   0.49891819 0.00056981953    6501.1296    7483.0244    13984.154    201295.91 
   63300        316.5   0.49640592 0.00053718417    6470.8803    7445.3442    13916.225    201295.91 
   63400          317   0.49880196 -0.0052719403    6486.0113    7481.2811    13967.292    201295.91 
   63500        317.5   0.50135151   0.00517312    6561.0415    7519.5206    14080.562    201295.91 
   63600          318   0.50210543 -0.00096979128    6438.0933    7530.8283    13968.922    201295.91 
   63700        318.5   0.50050043 0.0063544523    6508.5358    7506.7557    14015.292    201295.91 
   63800          319   0.49755228 0.0067931981    6535.2606    7462.5379    13997.799    201295.91 
   63900        319.5   0.49997291 0.0049436988     6484.358    7498.8436    13983.202    201295.91 
   64000          320   0.49403594 0.0035830011    6548.4346     7409.798    13958.233    201295.91 
   64100        320.5   0.49638088 -0.0042447223    6507.8694    7444.9687    13952.838    201295.91 
   64200          321   0.50438301 0.0021891472    6393.3008    7564.9886    13958.289    201295.91 
   64300        321.5   0.50326724 0.0051677773    6419.3439    7548.2537    13967.598    201295.91 
   64400          322   0.50253338 0.0072121408    6380.3994    7537.2468    13917.646    201295.91 
   64500        322.5   0.50410361 0.0029760542    6391.7413    7560.7979    13952.539    201295.91 
   64600          323   0.50395524 -0.0011779511    6450.8248    7558.5726    14009.397    201295.91 
   64700        323.5   0.50126233 0.0030728518    6411.1594     7518.183    13929.342    201295.91 
   64800          324   0.50049781 0.0099006558     6430.841    7506.7165    13937.557    201295.91 
   64900        324.5   0.49852208 0.0028895087    6444.1334    7477.0834    13921.217    201295.91 
   65000          325   0.49585277 -0.001501234    6499.1377    7437.0477    13936.185    201295.91 
   65100        325.5   0.49636441 -0.00012751448    6469.3497    7444.7216    13914.071    201295.91 
   65200          326   0.49756166 0.0018072766    6409.2187    7462.6786    13871.897    201295.91 
   65300        326.5   0.50512493 0.0080275537    6455.9294    7576.1163    14032.046    201295.91 
   65400          327   0.50202838  0.010362666    6513.2343    7529.6726    14042.907    201295.91 
   65500        327.5   0.50521444 -0.0018300756    6450.9148    7577.4588    14028.374    201295.91 
   65600          328   0.50326876 -0.0022596305    6458.7644    7548.2765    14007.041    201295.91 
   65700        328.5   0.50024454 0.0041373601    6540.4392    7502.9177    14043.357    201295.91 
   65800          329   0.49994314 0.0085347272    6504.2885    7498.3972    14002.686    201295.91 
   65900        329.5   0.50136318 0.0081155732    6462.8762    7519.6957    13982.572    201295.91 
   66000          330    0.5051486 0.0013856213    6449.9372    7576.4713    14026.409    201295.91 
   66100        330.5   0.50280248 0.0010396723    6450.6471     7541.283     13991.93    201295.91 
   66200          331   0.50138309 0.00062877548    6412.9642    7519.9943    13932.958    201295.91 
   66300        331.5   0.50656915 0.0037456187    6425.8902    7597.7775    14023.668    201295.91 
   66400          332   0.50215408 0.0079308978     6418.737     7531.558    13950.295    201295.91 
   66500        332.5    0.5002606  0.003273031    6427.5838    7503.1587    13930.742    201295.91 
   66600          333   0.49967077 -0.0052045403    6447.9584    7494.3121    13942.271    201295.91 
   66700        333.5   0.50113067 -0.00081129674    6491.3414    7516.2083     14007.55    201295.91 
   66800          334   0.50314523 0.0075541308    6530.6296    7546.4237    14077.053    201295.91 
   66900        334.5   0.49939932  0.010802521    6519.6475    7490.2407    14009.888    201295.91 
   67000          335   0.50115816 0.0017905507    6435.4277    7516.6207    13952.048    201295.91 
   67100        335.5   0.49323537 -0.00098232719    6428.7071    7397.7907    13826.498    201295.91 
   67200          336   0.49387486 0.0017504168    6376.2979     7407.382     13783.68    201295.91 
   67300        336.5   0.49421705 0.0040500968    6354.3728    7412.5144    13766.887    201295.91 
   67400          337    0.4963871 0.0058497825    6410.2229    7445.0619    13855.285    201295.91 
   67500        337.5   0.50046242 1.1000366e-05    6423.2223    7506.1856    13929.408    201295.91 
   67600          338   0.50605911 0.0024165321    6436.5182    7590.1276    14026.646    201295.91 
   67700        338.5   0.50242953 0.0032729184     6535.754    7535.6893    14071.443    201295.91 
   67800          339   0.50260577  0.007452602    6510.2415    7538.3327    14048.574    201295.91 
   67900        339.5   0.49929608 0.0017873505    6456.6276    7488.6922     13945.32    201295.91 
   68000          340   0.49708197  0.002858199    6416.5773     7455.484    13872.061    201295.91 
   68100        340.5   0.49360647 0.0028086393       6390.8    7403.3567    13794.157    201295.91 
   68200          341   0.49343757 0.0028761836    6487.9956    7400.8234    13888.819    201295.91 
   68300        341.5    0.5013897 0.0026307553    6479.1846    7520.0934    13999.278    201295.91 
   68400          342   0.50191607 0.0018839449    6520.0585    7527.9882    14048.047    201295.91 
   68500        342.5   0.50220948 0.0024142765     6469.961    7532.3889     14002.35    201295.91 
   68600          343   0.50483179 0.0023823866    6479.4471    7571.7196    14051.167    201295.91 
   68700        343.5   0.49636277 0.0015557859    6450.7722     7444.697    13895.469    201295.91 
   68800          344   0.49923815 0.0038579876     6425.044    7487.8234    13912.867    201295.91 
   68900        344.5   0.50196347 -0.0014198442    6471.9361    7528.6992    14000.635    201295.91 
   69000          345   0.49656077 0.0045312038    6475.9737    7447.6667     13923.64    201295.91 
   69100        345.5   0.49751151 -0.00014239314    6535.7883    7461.9264    13997.715    201295.91 
   69200          346   0.49837755 0.0044113747     6507.415    7474.9157    13982.331    201295.91 
   69300        346.5   0.50462596    0.0051536    6502.1054    7568.6325    14070.738    201295.91 
   69400          347    0.5017592 -0.0026600147    6484.9644    7525.6353      14010.6    201295.91 
   69500        347.5   0.50148546 0.0014725647    6457.9055    7521.5297    13979.435    201295.91 
   69600          348   0.49423915 0.0064186994    6459.1069    7412.8459    13871.953    201295.91 
   69700        348.5   0.49712705 0.0067563748    6433.1206      7456.16    13889.281    201295.91 
   69800          349   0.49133042 0.0036317245    6460.8509    7369.2192     13830.07    201295.91 
   69900        349.5   0.49931371 0.0054188641    6371.9928    7488.9566    13860.949    201295.91 
   70000          350   0.50043323  0.002803731    6476.9892    7505.7477    13982.737    201295.91 
   70100        350.5   0.49861888 -0.0011649928    6472.5798    7478.5352    13951.115    201295.91 
   70200          351    0.5006882 0.0072559335    6517.0261     7509.572    14026.598    201295.91 
   70300        351.5   0.51021276  0.005754724    6487.5308    7652.4261    14139.957    201295.91 
   70400          352   0.50161134 0.00079813051    6492.3135    7523.4176    14015.731    201295.91 
   70500        352.5   0.49742279 0.0015080516    6501.7908    7460.5957    13962.386    201295.91 
   70600          353   0.50462857 0.0028426845      6456.61    7568.6716    14025.282    201295.91 
   70700        353.5   0.49792649 0.00085365744    6387.0665    7468.1505    13855.217    201295.91 
   70800          354   0.49127233 0.0057393524    6473.8965    7368.3481    13842.245    201295.91 
   70900        354.5   0.49618572 0.0096600632      6410.04    7442.0415    13852.081    201295.91 
   71000          355   0.49294562 0.0029441409    6467.1608    7393.4449    13860.606    201295.91 
   71100        355.5   0.49346863 -0.0011859433    6387.1734    7401.2892    13788.463    201295.91 
   71200          356   0.48812639 0.0023527901    6378.2869    7321.1636    13699.451    201295.91 
   71300        356.5   0.49641777 0.0079991443    6435.2349     7445.522    13880.757    201295.91 
   71400          357   0.50425901 0.0057095147    6388.0215    7563.1287     13951.15    201295.91 
   71500        357.5   0.49689993 0.0048766325    6594.5678    7452.7536    14047.321    201295.91 
   71600          358   0.49359113 0.0017262035    6505.9302    7403.1265    13909.057    201295.91 
   71700        358.5   0.49608072  0.004289047    6415.1333    7440.4667      13855.6    201295.91 
   71800          359   0.49755824  0.001879851    6465.9611    7462.6272    13928.588    201295.91 
   71900        359.5   0.49595345  -0.00236592    6510.1087    7438.5578    13948.666    201295.91 
   72000          360    0.5028286 0.00023956261    6471.8408    7541.6747    14013.516    201295.91 
   72100        360.5   0.50424243 0.0071143957    6396.5403    7562.8801     13959.42    201295.91 
   72200          361   0.50300372 0.0082648863    6396.0192    7544.3013     13940.32    201295.91 
   72300        361.5   0.50373058 0.00056278655    6440.8668    7555.2031     13996.07    201295.91 
   72400          362   0.49658182 0.00058119071    6404.2773    7447.9824     13852.26    201295.91 
   72500        362.5   0.49235307  0.001832442    6512.6449    7384.5576    13897.202    201295.91 
   72600          363   0.49295395  0.006222083    6455.9662    7393.5698    13849.536    201295.91 
   72700        363.5   0.50478985 0.0058058791    6406.1685    7571.0906    13977.259    201295.91 
   72800          364   0.50190786 -0.0041853098    6492.0126     7527.865    14019.878    201295.91 
   72900        364.5   0.50252295 0.0057661613    6423.3617    7537.0905    13960.452    201295.91 
   73000          365   0.50231544  0.006349701    6553.5554    7533.9781    14087.534    201295.91 
   73100        365.5    0.4947503 -0.0012324782    6489.7226    7420.5124    13910.235    201295.91 
   73200          366   0.50432578 0.0055355825    6467.9543    7564.1302    14032.085    201295.91 
   73300        366.5   0.50639785 0.0069505405    6329.5196    7595.2082    13924.728    201295.91 
   73400          367   0.50117216 -0.0014633445    6433.3796    7516.8306     13950.21    201295.91 
   73500        367.5   0.50332513 -0.00049379955    6432.9186     7549.122    13982.041    201295.91 
   73600          368   0.49581305 0.0028599679    6451.2899    7436.4521    13887.742    201295.91 
   73700        368.5    0.4991177 0.0077511898     6487.238    7486.0168    13973.255    201295.91 
   73800          369   0.49929671 0.0018081104    6412.3575    7488.7017    13901.059    201295.91 
   73900        369.5   0.50088777 -0.0018383733    6369.1354    7512.5653    13881.701    201295.91 
   74000          370   0.49957285 0.0014428615    6395.4252    7492.8433    13888.269    201295.91 
   74100        370.5   0.49626732 0.0051701852    6338.4205    7443.2654    13781.686    201295.91 
   74200          371   0.49549792 0.0064416978    6409.2404    7431.7256    13840.966    201295.91 
   74300        371.5   0.50206077 -0.002373894     6427.422    7530.1584     13957.58    201295.91 
   74400          372   0.50001003 0.0039527016    6336.1814    7499.4005    13835.582    201295.91 
   74500        372.5   0.49708405 0.0069919461    6447.8219    7455.5152    13903.337    201295.91 
[...]
  281400          407   0.50175807   0.13962425    6626.7057    7525.6183    14152.324    29194.729 
  281500        407.5   0.50225682   0.14064253     6643.455    7533.0989    14176.554    29194.729 
  281600          408   0.49822358   0.11006051    6691.0628    7472.6064    14163.669    29194.729 
  281700        408.5   0.49880185    0.1171235    6634.9049    7481.2796    14116.184    29194.729 
  281800          409   0.50339258   0.17253641    6580.5778    7550.1336    14130.711    29194.729 
  281900        409.5   0.49875278   0.14499305    6756.8299    7480.5436    14237.374    29194.729 
  282000          410   0.50340071   0.12532864    6717.7685    7550.2556    14268.024    29194.729 
  282100        410.5   0.50092875  0.083755283     6648.267    7513.1799    14161.447    29194.729 
  282200          411    0.4964007    0.1946188    6631.2539    7445.2659     14076.52    29194.729 
  282300        411.5   0.50299449   0.14655723    6557.4047    7544.1628    14101.568    29194.729 
  282400          412   0.49980344   0.10100035    6664.3799    7496.3019    14160.682    29194.729 
  282500        412.5   0.50325311   0.11973919    6616.4187    7548.0417     14164.46    29194.729 
  282600          413   0.49671971   0.15319915      6629.86    7450.0506    14079.911    29194.729 
  282700        413.5   0.50232574   0.16040359    6577.7126    7534.1326    14111.845    29194.729 
  282800          414   0.50245485   0.10083081    6585.2356     7536.069    14121.305    29194.729 
  282900        414.5   0.50649571   0.11337477    6520.3124    7596.6759    14116.988    29194.729 
  283000          415   0.49855015   0.17614215    6645.5858    7477.5044     14123.09    29194.729 
  283100        415.5   0.50083245   0.12466041    6544.1221    7511.7355    14055.858    29194.729 
  283200          416   0.49565383   0.10629861    6597.2388     7434.064    14031.303    29194.729 
  283300        416.5   0.49933781  0.098717578    6515.1897    7489.3182    14004.508    29194.729 
  283400          417    0.4907971   0.13372459    6593.1092    7361.2202    13954.329    29194.729 
  283500        417.5   0.48737581    0.1339453    6625.3321     7309.906    13935.238    29194.729 
  283600          418   0.49955023   0.13209311    6561.5145    7492.5041    14054.019    29194.729 
  283700        418.5   0.50064763   0.12079949    6644.0474    7508.9635    14153.011    29194.729 
  283800          419    0.5019524   0.10876144    6769.0756    7528.5331    14297.609    29194.729 
  283900        419.5   0.50153651    0.1644076    6697.1127    7522.2954    14219.408    29194.729 
  284000          420   0.50251602   0.15356515    6681.6106    7536.9866    14218.597    29194.729 
  284100        420.5     0.506587    0.1550619    6628.4892    7598.0452    14226.534    29194.729 
  284200          421   0.50945322   0.10984498    6555.0035    7641.0341    14196.038    29194.729 
  284300        421.5   0.50374186   0.17948592    6624.3665    7555.3723    14179.739    29194.729 
  284400          422   0.49607565   0.16616555    6699.6139    7440.3906    14140.005    29194.729 
  284500        422.5   0.50317578   0.12212198    6583.7582    7546.8819     14130.64    29194.729 
  284600          423    0.5014696   0.10412777    6595.6457    7521.2917    14116.937    29194.729 
  284700        423.5   0.50140801   0.10915043    6655.9636     7520.368    14176.332    29194.729 
  284800          424   0.49616883   0.13109814    6699.7543    7441.7882    14141.542    29194.729 
  284900        424.5   0.49768303   0.12644007    6762.7989    7464.4989    14227.298    29194.729 
  285000          425    0.5006224   0.15644581    6655.8437    7508.5851    14164.429    29194.729 
  285100        425.5   0.49996064   0.15966164    6676.5536    7498.6597    14175.213    29194.729 
  285200          426    0.4981443   0.10113229     6777.651    7471.4172    14249.068    29194.729 
  285300        426.5   0.50029955   0.12938918    6690.7442    7503.7429    14194.487    29194.729 
  285400          427   0.49986084   0.13640993    6638.5423    7497.1628    14135.705    29194.729 
  285500        427.5   0.49803689   0.15484548     6610.216    7469.8062    14080.022    29194.729 
  285600          428   0.50078494   0.13793016     6584.156    7511.0229    14095.179    29194.729 
  285700        428.5    0.5005918     0.126595    6514.8634    7508.1261    14022.989    29194.729 
  285800          429    0.4996326   0.15503567    6553.8575    7493.7395    14047.597    29194.729 
  285900        429.5   0.49840301   0.14316345    6590.6231    7475.2975    14065.921    29194.729 
  286000          430    0.5011813   0.14135762    6625.8132    7516.9677    14142.781    29194.729 
  286100        430.5   0.49986462   0.13388332     6641.742    7497.2195    14138.961    29194.729 
  286200          431   0.49601966   0.14831982    6636.8682    7439.5509    14076.419    29194.729 
  286300        431.5   0.49720683   0.11828156    6578.6168    7457.3567    14035.974    29194.729 
  286400          432   0.49511781   0.09414951    6666.9973    7426.0245    14093.022    29194.729 
  286500        432.5   0.50545309   0.13357157      6659.61    7581.0382    14240.648    29194.729 
  286600          433   0.49213843   0.17673798    6801.0891    7381.3382    14182.427    29194.729 
  286700        433.5   0.49780247   0.15524096    6680.3097    7466.2904      14146.6    29194.729 
  286800          434   0.50122449   0.13900706    6534.8778    7517.6155    14052.493    29194.729 
  286900        434.5   0.49969342    0.1501155     6589.472    7494.6518    14084.124    29194.729 
  287000          435   0.50013502   0.13521064    6571.1697    7501.2752    14072.445    29194.729 
  287100        435.5   0.49395845   0.14150702    6552.3119    7408.6358    13960.948    29194.729 
  287200          436   0.50055997   0.11668773    6654.8605    7507.6487    14162.509    29194.729 
  287300        436.5   0.49936043   0.11172987    6661.6617    7489.6573    14151.319    29194.729 
  287400          437   0.50039713   0.13624714    6654.5641    7505.2064    14159.771    29194.729 
  287500        437.5   0.50382546   0.19963463    6597.6291    7556.6262    14154.255    29194.729 
  287600          438   0.50379484   0.13760859    6531.7613    7556.1669    14087.928    29194.729 
  287700        438.5   0.50116709   0.11115145    6648.8612    7516.7546    14165.616    29194.729 
  287800          439   0.49997292   0.12942233    6710.1784    7498.8439    14209.022    29194.729 
  287900        439.5   0.50144951   0.08530359    6624.6209    7520.9904    14145.611    29194.729 
  288000          440   0.49083411   0.12963864    6663.8056    7361.7754    14025.581    29194.729 
  288100        440.5   0.49900583   0.17789244    6466.6475    7484.3389    13950.986    29194.729 
  288200          441   0.49993621   0.13704751    6574.9276    7498.2933    14073.221    29194.729 
  288300        441.5   0.50183179   0.11829122    6659.4673    7526.7241    14186.191    29194.729 
  288400          442   0.50606021   0.10252508    6533.3604    7590.1441    14123.505    29194.729 
  288500        442.5   0.50176454   0.13336032    6656.1449    7525.7154     14181.86    29194.729 
  288600          443   0.50284972   0.16941652    6590.8587    7541.9915     14132.85    29194.729 
  288700        443.5   0.49755614   0.17716702    6746.6052    7462.5958    14209.201    29194.729 
  288800          444   0.50458715   0.14827184    6581.3273    7568.0504    14149.378    29194.729 
  288900        444.5   0.50412605   0.11442258    6635.6565    7561.1346    14196.791    29194.729 
  289000          445   0.50599973  0.096595013     6622.836     7589.237    14212.073    29194.729 
  289100        445.5   0.50270351   0.16472916     6722.676    7539.7985    14262.475    29194.729 
  289200          446   0.50340648   0.14001025    6640.6634    7550.3421    14191.005    29194.729 
  289300        446.5   0.50381821  0.099025923     6679.408    7556.5174    14235.925    29194.729 
  289400          447   0.50203034   0.12640166     6613.507     7529.702    14143.209    29194.729 
  289500        447.5   0.50203243   0.15092925    6533.8118    7529.7334    14063.545    29194.729 
  289600          448   0.49594235   0.14080504     6585.826    7438.3913    14024.217    29194.729 
  289700        448.5   0.49980773   0.11833819    6588.3712    7496.3662    14084.737    29194.729 
  289800          449   0.50232393   0.16233859    6608.0556    7534.1055    14142.161    29194.729 
  289900        449.5   0.50373353   0.13295912    6602.8963    7555.2474    14158.144    29194.729 
  290000          450   0.50292414   0.11826191    6673.1614    7543.1077    14216.269    29194.729 
  290100        450.5   0.49556652   0.12411089    6723.2256    7432.7545     14155.98    29194.729 
  290200          451   0.50375686   0.13009122     6631.202    7555.5972    14186.799    29194.729 
  290300        451.5   0.49431218   0.11887362    6630.7247    7413.9412    14044.666    29194.729 
  290400          452   0.49459988   0.14007122     6527.045    7418.2563    13945.301    29194.729 
  290500        452.5   0.50050395   0.14149935    6630.1708    7506.8085    14136.979    29194.729 
  290600          453   0.49734011   0.10999036    6648.0179    7459.3556    14107.373    29194.729 
  290700        453.5   0.49821341   0.13450076    6697.3924    7472.4539    14169.846    29194.729 
  290800          454   0.50349914   0.14549481    6653.5498    7551.7318    14205.282    29194.729 
  290900        454.5   0.50296537   0.13654193    6657.3227    7543.7261    14201.049    29194.729 
  291000          455   0.50021093    0.1247342    6667.9605    7502.4137    14170.374    29194.729 
  291100        455.5   0.50143134   0.11102501    6682.5035     7520.718    14203.221    29194.729 
  291200          456   0.49844831   0.12976844    6719.5542     7475.977    14195.531    29194.729 
  291300        456.5   0.50195785   0.13320615    6683.3166    7528.6148    14211.931    29194.729 
  291400          457   0.50510184    0.1827002    6642.2623    7575.7699    14218.032    29194.729 
  291500        457.5   0.49979551  0.093873214    6597.8942     7496.183    14094.077    29194.729 
  291600          458   0.49854468   0.10012842    6630.1859    7477.4223    14107.608    29194.729 
  291700        458.5   0.50375724   0.12633036    6628.2089     7555.603    14183.812    29194.729 
  291800          459    0.4992709   0.14222473    6609.7568    7488.3146    14098.071    29194.729 
  291900        459.5   0.49846987   0.15152105    6587.7426    7476.3003    14064.043    29194.729 
  292000          460    0.5022579   0.12758892    6563.2709    7533.1151    14096.386    29194.729 
  292100        460.5   0.49801028   0.13174668    6622.9697    7469.4072    14092.377    29194.729 
  292200          461   0.49849018   0.14005815    6561.1113    7476.6049    14037.716    29194.729 
  292300        461.5   0.49692325   0.14621527    6628.3639    7453.1034    14081.467    29194.729 
  292400          462   0.49930576   0.12643045    6652.9687    7488.8374    14141.806    29194.729 
  292500        462.5   0.49674156   0.10231595    6688.2375    7450.3784    14138.616    29194.729 
  292600          463   0.50306462   0.17757291     6610.883    7545.2147    14156.098    29194.729 
  292700        463.5   0.50037115   0.16359057    6599.5312    7504.8167    14104.348    29194.729 
  292800          464   0.49877616    0.1553948    6593.7922    7480.8943    14074.686    29194.729 
  292900        464.5   0.50013195  0.098398215    6685.5896    7501.2291    14186.819    29194.729 
  293000          465   0.49940694  0.090516727    6586.6201     7490.355    14076.975    29194.729 
  293100        465.5   0.49574425     0.136552    6598.8415    7435.4202    14034.262    29194.729 
  293200          466    0.4989382   0.15427834     6688.335    7483.3245     14171.66    29194.729 
  293300        466.5   0.50103103   0.16621272    6615.2291    7514.7138    14129.943    29194.729 
  293400          467   0.50363217   0.14760534    6616.0403    7553.7271    14169.767    29194.729 
  293500        467.5   0.49799002  0.070108765    6539.5429    7469.1033    14008.646    29194.729 
  293600          468   0.49795721   0.10200354    6593.6683    7468.6112    14062.279    29194.729 
  293700        468.5   0.49422605   0.16976555    6609.7021    7412.6494    14022.351    29194.729 
  293800          469   0.49880425   0.16761625    6656.0528    7481.3156    14137.368    29194.729 
  293900        469.5   0.49808605   0.11463993    6640.9247    7470.5436    14111.468    29194.729 
  294000          470   0.49896325   0.10474391    6554.7146    7483.7004    14038.415    29194.729 
  294100        470.5   0.49790759    0.1418499    6574.7163     7467.867    14042.583    29194.729 
  294200          471   0.50351646   0.16526486    6464.4033    7551.9916    14016.395    29194.729 
  294300        471.5   0.49858369   0.15877851    6558.2695    7478.0074    14036.277    29194.729 
  294400          472   0.50905758  0.091559585    6572.4267    7635.1001    14207.527    29194.729 
  294500        472.5   0.49831725  0.091424675    6752.5012    7474.0113    14226.513    29194.729 
  294600          473    0.4943419   0.12046899    6635.2533     7414.387     14049.64    29194.729 
  294700        473.5   0.50234981   0.15807616    6545.0565    7534.4937     14079.55    29194.729 
  294800          474   0.49861766     0.137166    6698.0639    7478.5169    14176.581    29194.729 
  294900        474.5   0.50236338   0.10026133    6665.7975    7534.6972    14200.495    29194.729 
  295000          475   0.50175737   0.10830938    6740.2741    7525.6079    14265.882    29194.729 
  295100        475.5   0.50143813   0.18624046    6692.2439    7520.8198    14213.064    29194.729 
  295200          476   0.49971592   0.15069891    6762.0618    7494.9892    14257.051    29194.729 
  295300        476.5   0.50365247   0.11208526    6695.6886    7554.0315     14249.72    29194.729 
  295400          477   0.50029453  0.086530005     6688.148    7503.6675    14191.815    29194.729 
  295500        477.5   0.50021667   0.13663034    6694.8294    7502.4998    14197.329    29194.729 
  295600          478   0.50216049    0.1657224    6598.9476    7531.6541    14130.602    29194.729 
  295700        478.5   0.49727194   0.13647095    6569.8685    7458.3332    14028.202    29194.729 
  295800          479   0.49210973   0.14197617    6595.6371    7380.9078    13976.545    29194.729 
  295900        479.5   0.49697686   0.12403086    6562.4019    7453.9075    14016.309    29194.729 
  296000          480   0.50192321   0.12230781    6567.2267    7528.0952    14095.322    29194.729 
  296100        480.5   0.50422329   0.14760125    6552.0057     7562.593    14114.599    29194.729 
  296200          481   0.50602252   0.16963775    6602.7699    7589.5788    14192.349    29194.729 
  296300        481.5   0.49588837   0.11362937    6663.9897    7437.5817    14101.571    29194.729 
  296400          482   0.49847794  0.089568895    6719.9567    7476.4214    14196.378    29194.729 
  296500        482.5    0.5016721   0.11191164    6603.0047    7524.3291    14127.334    29194.729 
  296600          483   0.51154156   0.12516634    6634.1569    7672.3561    14306.513    29194.729 
  296700        483.5   0.50094404   0.13708046    6677.4711    7513.4092     14190.88    29194.729 
  296800          484   0.50011847   0.15437318    6685.2956    7501.0269    14186.322    29194.729 
  296900        484.5   0.49849766   0.12964189    6653.6209    7476.7171    14130.338    29194.729 
  297000          485   0.49957897   0.11786821    6559.8318    7492.9353    14052.767    29194.729 
  297100        485.5   0.49799865    0.1162239    6622.2126    7469.2328    14091.445    29194.729 
  297200          486   0.49753791   0.14027444    6633.4405    7462.3224    14095.763    29194.729 
  297300        486.5   0.49044304   0.14239759    6684.5555    7355.9099    14040.465    29194.729 
  297400          487   0.49604892   0.13745605    6522.4582    7439.9897    13962.448    29194.729 
  297500        487.5   0.49557681   0.11615167    6449.3028    7432.9088    13882.212    29194.729 
  297600          488   0.50268031   0.12366083    6547.4699    7539.4507    14086.921    29194.729 
  297700        488.5   0.50765226   0.12304519    6539.6756    7614.0224    14153.698    29194.729 
  297800          489   0.50532539   0.13381318     6695.169    7579.1229    14274.292    29194.729 
  297900        489.5   0.50140008   0.13707574    6645.3838    7520.2491    14165.633    29194.729 
  298000          490   0.49636831   0.12175049    6678.0938    7444.7802    14122.874    29194.729 
  298100        490.5   0.49964833  0.084364425    6598.6853    7493.9755    14092.661    29194.729 
  298200          491   0.50698004   0.13762815    6534.1787    7603.9402    14138.119    29194.729 
  298300        491.5   0.50278387   0.13162663    6490.0543    7541.0038    14031.058    29194.729 
  298400          492    0.4965595   0.12468605    6683.7965    7447.6477    14131.444    29194.729 
  298500        492.5   0.50209957   0.13439154    6595.6812    7530.7404    14126.422    29194.729 
  298600          493   0.50095671   0.13531266    6475.3681    7513.5992    13988.967    29194.729 
  298700        493.5   0.49922231   0.13962129    6577.7834    7487.5859    14065.369    29194.729 
  298800          494   0.50227964   0.11443532    6635.0574    7533.4412    14168.499    29194.729 
  298900        494.5   0.50927133   0.11063152    6648.7393     7638.306    14287.045    29194.729 
  299000          495   0.50498257   0.10880845    6658.6521    7573.9811    14232.633    29194.729 
  299100        495.5   0.50390859   0.14039746    6672.5913    7557.8729    14230.464    29194.729 
  299200          496   0.50131054   0.12925083    6700.1503    7518.9061    14219.056    29194.729 
  299300        496.5   0.49756073   0.13791599    6596.1828    7462.6646    14058.847    29194.729 
  299400          497   0.49785541     0.141192    6519.2547    7467.0843    13986.339    29194.729 
  299500        497.5   0.49601554   0.14835361    6607.2032    7439.4891    14046.692    29194.729 
  299600          498   0.49942627   0.12115931    6650.1241    7490.6449    14140.769    29194.729 
  299700        498.5   0.49704993  0.095644639    6656.1179    7455.0033    14111.121    29194.729 
  299800          499   0.50084164   0.13716844    6607.4655    7511.8733    14119.339    29194.729 
  299900        499.5   0.50016991   0.14620208    6649.0635    7501.7983    14150.862    29194.729 
  300000          500   0.49743073   0.15553091    6608.6729    7460.7148    14069.388    29194.729 
Loop time of 86.8989 on 1 procs for 50000 steps with 10000 atoms

Performance: 248564.589 tau/day, 575.381 timesteps/s
98.5% CPU use with 1 MPI tasks x 1 OpenMP threads

MPI task timing breakdown:
Section |  min time  |  avg time  |  max time  |%varavg| %total
---------------------------------------------------------------
Pair    | 7.9952     | 7.9952     | 7.9952     |   0.0 |  9.20
Bond    | 27.398     | 27.398     | 27.398     |   0.0 | 31.53
Neigh   | 16.295     | 16.295     | 16.295     |   0.0 | 18.75
Comm    | 3.7059     | 3.7059     | 3.7059     |   0.0 |  4.26
Output  | 1.2946     | 1.2946     | 1.2946     |   0.0 |  1.49
Modify  | 29         | 29         | 29         |   0.0 | 33.37
Other   |            | 1.21       |            |       |  1.39

Nlocal:    10000 ave 10000 max 10000 min
Histogram: 1 0 0 0 0 0 0 0 0 0
Nghost:    4128 ave 4128 max 4128 min
Histogram: 1 0 0 0 0 0 0 0 0 0
Neighs:    8769 ave 8769 max 8769 min
Histogram: 1 0 0 0 0 0 0 0 0 0

Total # of neighbors = 8769
Ave neighs/atom = 0.8769
Ave special neighs/atom = 4.8
Neighbor list builds = 4396
Dangerous builds = 662
