LAMMPS (3 Mar 2020)
OMP_NUM_THREADS environment is not set. Defaulting to 1 thread. (../comm.cpp:94)
  using 1 OpenMP thread(s) per MPI task
#SETUP
# Runs on the first loop only
shell del *.dump     # delete all dump files before first run CAREFUL WITH THIS
shell del restart.time*     # delete all current restart files before first run
shell lmp_serial -in in.run_setup     # first run of file, generate first restart file

#VARIABLES
variable N         equal  1000  #MUST BE SAME AS SETUP FILE FOR PHASEPLOT
variable T         equal  0.5
variable t_step    equal  0.005 #originally 0.005
variable mix_steps index  150000 20000 20000
variable mix_tau   equal  ${t_step}*${mix_steps}
variable mix_tau   equal  0.005*${mix_steps}
variable mix_tau   equal  0.005*150000
variable run_steps equal  1000000 # steps to run simulation in order to reach steady state
variable run_tau   equal  ${t_step}*${run_steps} # this is the time in LJ units
variable run_tau   equal  0.005*${run_steps} 
variable run_tau   equal  0.005*1000000 
#1000 particles averages 35,000 steps per minute

#LOOP START
label loop  #start loop from here
read_restart restart.time*
  restoring atom style molecular from restart
  orthogonal box = (-50 -150 -50) to (50 150 50)
  1 by 1 by 1 MPI processor grid
  restoring pair style lj/cut from restart
  restoring bond style harmonic from restart
  restoring angle style harmonic from restart
  10000 atoms
  9000 bonds
  8000 angles
  2 = max # of 1-2 neighbors
  2 = max # of 1-3 neighbors
  4 = max # of 1-4 neighbors
  6 = max # of special neighbors
  special bonds CPU = 0.00897598 secs
  read_restart CPU = 0.0239379 secs
# this reads in latest restart file, * is wildcard for timestep


# THERMAL
timestep ${t_step}
timestep 0.005
thermo   100
thermo_style custom step time temp press pe ke etotal vol
thermo_modify norm no


# DUMP OUTPUT
dump  1  all custom 15000 output_T_${T}_time_*.dump id mol type x y z vx vy vz
dump  1  all custom 15000 output_T_0.5_time_*.dump id mol type x y z vx vy vz
# dumps all positions etc every N  steps
dump_modify 1 sort id

# FIX
fix 2 all nph iso ${T} ${T} 100   #changed from T = 0.5 to match variable T
fix 2 all nph iso 0.5 ${T} 100   
fix 2 all nph iso 0.5 0.5 100   
fix 3 all langevin ${T} ${T} 1 123456 #as above
fix 3 all langevin 0.5 ${T} 1 123456 
fix 3 all langevin 0.5 0.5 1 123456 
run ${mix_steps}
run 150000
Neighbor list info ...
  update every 1 steps, delay 10 steps, check yes
  max neighbors/atom: 2000, page size: 100000
  master list distance cutoff = 1.42
  ghost atom cutoff = 1.9
  binsize = 0.71, bins = 141 423 141
  1 neighbor lists, perpetual/occasional/extra = 1 0 0
  (1) pair lj/cut, perpetual
      attributes: half, newton on
      pair build: half/bin/newton
      stencil: half/bin/3d/newton
      bin: standard
Per MPI rank memory allocation (min/avg/max) = 45.61 | 45.61 | 45.61 Mbytes
Step Time Temp Press PotEng KinEng TotEng Volume 
       0            0            0 -4.4100659e-17 1.4899193e-10            0 1.4899193e-10 3000000 
     100          0.5   0.21390765 0.00034438672    2561.2233    3208.2939    5769.5172      2983350 
     200            1   0.33077979 0.00067685946    4008.8127    4961.2006    8970.0133    2941226.9 
     300          1.5   0.40468201 0.00048769344    5004.6053    6069.6231    11074.228    2899175.2 
     400            2   0.44121341 -0.00054884592    5567.4594    6617.5393    12184.999    2860886.7 
     500          2.5   0.46555868 -0.0001311342    5924.9707    6982.6818    12907.653    2822289.1 
     600            3   0.48403867 0.00047038081    6125.9361     7259.854     13385.79    2786808.6 
     700          3.5   0.49439362 0.00071611969    6325.6606    7415.1627    13740.823    2754642.2 
     800            4   0.48913548 5.8598717e-05    6441.3037    7336.2984    13777.602    2724240.3 
     900          4.5   0.49713618 0.00028671614    6341.1623    7456.2971    13797.459    2694944.8 
    1000            5   0.49947218 0.00022967596    6381.8867    7491.3335     13873.22    2666597.9 
    1100          5.5   0.50090082 0.00038916237    6354.5551     7512.761    13867.316    2639095.3 
    1200            6    0.4974779 0.00041720973    6382.3552    7461.4222    13843.777    2612347.7 
    1300          6.5   0.49571394 5.8060491e-06    6420.5676    7434.9655    13855.533      2586286 
    1400            7   0.50120723 -0.00012517913    6394.4137    7517.3566     13911.77    2560856.3 
    1500          7.5   0.49717277 -4.3711603e-05    6394.9063    7456.8458    13851.752    2536014.2 
    1600            8   0.49945981 0.00079873676    6376.9837     7491.148    13868.132    2511719.8 
    1700          8.5   0.49860101 0.00059332671    6380.7023    7478.2672     13858.97    2487950.2 
    1800            9    0.4994781 0.00021633216    6480.5947    7491.4223    13972.017      2464674 
    1900          9.5   0.50479448 -0.00021520008    6377.3767      7571.16    13948.537    2441870.1 
    2000           10    0.4976716 4.6780186e-05    6409.6458    7464.3275    13873.973    2419513.7 
    2100         10.5   0.49762086 0.00050639553    6408.3924    7463.5665    13871.959    2397585.4 
    2200           11   0.50166467 0.00049801152    6413.1599    7524.2175    13937.377    2376069.9 
    2300         11.5   0.50091556 0.00063270148    6416.2049     7512.982    13929.187    2354946.9 
    2400           12   0.50280948 0.00041482709    6427.3209     7541.388    13968.709    2334204.1 
    2500         12.5   0.49654295 -0.00061998111     6424.211    7447.3995     13871.61    2313830.3 
    2600           13   0.50253049 7.436318e-05    6454.4868    7537.2035     13991.69    2293806.9 
    2700         13.5   0.49852041 0.00069563683    6512.4921    7477.0584    13989.551    2274124.2 
    2800           14   0.49966812 0.00090251704    6475.8563    7494.2722    13970.129      2254775 
    2900         14.5   0.50419474 -5.6597985e-05    6477.8915    7562.1648    14040.056    2235747.2 
    3000           15       0.4998 -0.00066341467    6498.1193    7496.2503     13994.37    2217026.5 
    3100         15.5   0.50187773 0.00032712687    6502.8401    7527.4131    14030.253    2198601.5 
    3200           16   0.49405469 0.00085070145    6464.8148    7410.0793    13874.894    2180471.5 
    3300         16.5   0.50283265 0.00023340754    6315.5714    7541.7356    13857.307    2162625.5 
    3400           17   0.50156274 -0.0001832221     6385.476    7522.6888    13908.165    2145055.2 
    3500         17.5   0.50655002 0.00027860364    6456.0318    7597.4904    14053.522    2127752.1 
    3600           18   0.50357237 0.00094152304    6540.5658    7552.8302    14093.396    2110708.8 
    3700         18.5     0.510451 0.00062211244    6500.7455    7655.9993    14156.745    2093921.5 
    3800           19   0.50182315 -0.00020594585    6500.4313    7526.5945    14027.026      2077382 
    3900         19.5   0.50072872 -7.6567033e-05     6443.519    7510.1796    13953.699    2061082.7 
    4000           20   0.50493366 0.00035820213    6434.7173    7573.2475    14007.965    2045018.1 
    4100         20.5    0.4984214 0.00041860229    6470.8055    7475.5734    13946.379    2029184.6 
    4200           21   0.51013555 0.00035705671    6453.6053     7651.268    14104.873    2013574.8 
    4300         21.5   0.50279787 -5.9559021e-05    6445.6886    7541.2139    13986.902    1998181.3 
    4400           22   0.49950443 0.00054705111    6464.5713    7491.8172    13956.389    1983000.7 
    4500         22.5   0.50133396 0.00071209796    6451.0904    7519.2573    13970.348    1968031.6 
    4600           23    0.5007526 0.00027217355    6479.1854    7510.5379    13989.723    1953265.1 
    4700         23.5   0.50200089 -0.00037175585    6415.1592    7529.2603     13944.42    1938697.1 
    4800           24   0.50649894 0.00028927203    6485.7578    7596.7243    14082.482    1924325.8 
    4900         24.5   0.50281307 0.00041380994    6372.5992    7541.4419    13914.041    1910145.5 
    5000           25   0.50446982 0.0002023373    6368.5465    7566.2907    13934.837    1896152.4 
    5100         25.5   0.49700757 0.00038806139    6472.9617     7454.368     13927.33    1882342.7 
    5200           26   0.49915581 0.00050386019    6439.6149    7486.5884    13926.203      1868712 
    5300         26.5   0.49775238 0.00011126207    6438.2244    7465.5391    13903.764    1855255.8 
    5400           27   0.49897082 0.00078364023    6404.5371    7483.8138    13888.351    1841969.3 
    5500         27.5   0.49126666 0.00073711468    6480.2017     7368.263    13848.465    1828851.4 
    5600           28   0.49357004 -0.00011425266    6429.1974    7402.8103    13832.008    1815899.4 
    5700         28.5   0.50150101 -0.00018091096    6425.7452    7521.7629    13947.508    1803109.6 
    5800           29   0.50449837 0.00018606183     6429.898    7566.7188    13996.617    1790478.4 
    5900         29.5   0.50211745 0.00092695081    6464.7328    7531.0086    13995.741    1777999.4 
    6000           30   0.49949864 0.00024457876    6545.1964    7491.7304    14036.927    1765673.6 
    6100         30.5   0.50245823 0.0001028438    6507.5036    7536.1197    14043.623    1753498.9 
    6200           31   0.50348561 0.00032534263    6453.7792    7551.5289    14005.308    1741470.5 
    6300         31.5   0.49601898 0.00057854819    6448.5443    7439.5407    13888.085    1729584.8 
    6400           32    0.4991807 -0.00023480367    6485.4378    7486.9617    13972.399      1717843 
    6500         32.5   0.49916186 -0.00018403628    6495.6893    7486.6791    13982.368    1706238.2 
    6600           33   0.49988715 0.00058281792    6500.4371    7497.5574    13997.994    1694769.7 
    6700         33.5   0.49940287 0.00022817677    6492.9417     7490.294    13983.236    1683434.3 
    6800           34   0.49418635 0.00039740732    6432.4104    7412.0539    13844.464    1672229.7 
    6900         34.5   0.50161067 0.00047615493    6406.0143    7523.4076    13929.422    1661155.9 
    7000           35   0.49760512 0.0001928135    6466.1847    7463.3304    13929.515    1650209.4 
    7100         35.5   0.50248827 0.00041717169    6410.2109    7536.5703    13946.781    1639385.9 
    7200           36   0.50269272 0.00047236808    6425.0414    7539.6368    13964.678    1628685.3 
    7300         36.5   0.49855544 0.00029286017    6449.0906    7477.5838    13926.674    1618106.2 
    7400           37   0.49903932 0.0001671213    6451.5281    7484.8413    13936.369    1607645.7 
    7500         37.5   0.48768477 -0.00040998284    6513.3779      7314.54    13827.918    1597303.2 
    7600           38   0.49770099 -0.00055991069    6378.3175    7464.7683    13843.086    1587075.3 
    7700         38.5   0.50015671 0.00090225404    6337.1329    7501.6005    13838.733      1576955 
    7800           39   0.50273833 0.0014274306     6275.069    7540.3208     13815.39    1566947.2 
    7900         39.5   0.50256832 0.00020740887    6347.4196     7537.771    13885.191    1557050.1 
    8000           40   0.50106007 -0.00015346734    6482.7657    7515.1494    13997.915    1547259.2 
    8100         40.5   0.50131687 -0.00018945809    6399.2621    7519.0011    13918.263    1537573.1 
    8200           41   0.50469348 0.00040066126    6379.9694    7569.6451    13949.614    1527990.9 
    8300         41.5   0.50342206 0.00076181452    6426.0958    7550.5758    13976.672    1518509.2 
    8400           42   0.50235579 0.00032880197    6467.1883    7534.5833    14001.772    1509128.7 
    8500         42.5    0.4993212 0.00010533988    6434.2691    7489.0689    13923.338    1499848.4 
    8600           43   0.49864059 0.00045813316    6552.1462    7478.8608    14031.007    1490663.8 
    8700         43.5   0.50215601 0.00024361606    6446.9768     7531.587    13978.564    1481576.1 
    8800           44   0.50641084 0.00046094555    6424.9843    7595.4029    14020.387    1472581.4 
    8900         44.5   0.50774113 0.00060413509    6433.3914    7615.3554    14048.747    1463680.4 
    9000           45   0.49835804 0.00034912934    6445.2269    7474.6231     13919.85    1454869.8 
    9100         45.5   0.49403883 0.00033384059    6452.9634    7409.8414    13862.805    1446148.6 
    9200           46   0.49661052 0.00036264317    6468.9419    7448.4128    13917.355    1437516.5 
    9300         46.5   0.49789515 -0.00015171082    6396.1807    7467.6805    13863.861    1428971.6 
    9400           47   0.49893264 1.6372293e-05    6349.4893    7483.2412     13832.73    1420513.4 
    9500         47.5   0.49629688 0.00097206721     6261.195    7443.7088    13704.904    1412139.5 
    9600           48   0.51033429 0.00061807341    6315.6094    7654.2488    13969.858    1403848.8 
    9700         48.5   0.50559681 -0.0004176118     6408.917    7583.1938    13992.111      1395641 
    9800           49   0.49695036 -0.0003911253      6535.72    7453.5099     13989.23    1387512.9 
    9900         49.5   0.50016477 -1.5853288e-05    6515.2573    7501.7214    14016.979    1379464.9 
   10000           50   0.49634015 0.00012012721    6518.5794    7444.3577    13962.937    1371495.9 
   10100         50.5   0.48903431 0.0011773522    6490.9938    7334.7811    13825.775      1363603 
   10200           51   0.49116262 0.00035892423    6415.4576    7366.7025     13782.16    1355788.3 
   10300         51.5   0.49851966 -0.0010649657    6377.2759    7477.0471    13854.323    1348049.7 
   10400           52   0.49549178 8.9992392e-05    6460.1592    7431.6334    13891.793    1340384.9 
   10500         52.5   0.50097469 0.0010174143    6367.8509     7513.869     13881.72    1332794.2 
   10600           53   0.49626268 0.00078676175    6434.5363    7443.1958    13877.732    1325276.3 
   10700         53.5   0.50315129 0.00052143232    6349.0664    7546.5146    13895.581    1317829.5 
   10800           54    0.5045307 -0.00013104341    6522.9741    7567.2038    14090.178    1310452.7 
   10900         54.5   0.50862097 -0.00028984935    6521.1828    7628.5517    14149.735    1303144.1 
   11000           55   0.50569144 0.00041994077    6458.3302     7584.613    14042.943    1295902.9 
   11100         55.5   0.49680158 0.00044608801    6509.6085    7451.2785    13960.887    1288729.4 
   11200           56   0.50385668 3.7077442e-05    6501.3499    7557.0945    14058.444    1281623.3 
   11300         56.5   0.49857207 0.00021565217    6500.1229    7477.8331    13977.956    1274584.8 
   11400           57   0.50151017 0.00031715243    6455.8049    7521.9003    13977.705    1267611.3 
   11500         57.5    0.4981713 0.00033120258    6499.0583    7471.8223    13970.881    1260700.8 
   11600           58   0.49893756 0.00046540305    6523.3151     7483.315     14006.63    1253852.4 
   11700         58.5   0.50060272 0.0011896039    6446.3993    7508.2899    13954.689    1247066.2 
   11800           59   0.50407292 0.00033910095     6447.434    7560.3377    14007.772    1240341.2 
   11900         59.5   0.50018721 -0.00037004248    6457.1559    7502.0578    13959.214    1233678.3 
   12000           60   0.49888215 0.00069333903    6477.7435     7482.484    13960.228    1227074.6 
   12100         60.5   0.50529206 0.00089731246    6359.0847     7578.623    13937.708    1220531.3 
   12200           61   0.50041843 0.00015821331    6537.9174    7505.5258    14043.443    1214045.6 
   12300         61.5   0.50316447 0.00088555934     6536.948    7546.7123     14083.66    1207615.9 
   12400           62   0.50138966 0.00028529559    6402.5391    7520.0928    13922.632    1201243.3 
   12500         62.5   0.49859418 -1.5506574e-05    6409.4459    7478.1648    13887.611    1194926.7 
   12600           63   0.50293846 0.00070157061    6471.7326    7543.3224    14015.055    1188664.5 
   12700         63.5   0.49932489 0.00050662272    6442.2312    7489.1244    13931.356    1182458.5 
   12800           64   0.49832038  0.001137325    6408.0615    7474.0582     13882.12    1176305.2 
   12900         64.5   0.50003588 0.00041629013    6436.4238    7499.7882    13936.212    1170206.4 
   13000           65   0.49837354 0.00015570645    6474.0652    7474.8555    13948.921    1164159.6 
   13100         65.5   0.49912341 0.00049069798    6527.9532    7486.1024    14014.056    1158164.7 
   13200           66   0.50224292 0.00059722009    6430.5317    7532.8905    13963.422    1152221.1 
   13300         66.5   0.50148987 0.00042013325    6432.8769    7521.5958    13954.473    1146328.4 
   13400           67   0.49575015 0.00032089724    6528.1315    7435.5087     13963.64    1140485.6 
   13500         67.5   0.49856307 8.3104466e-05    6578.7816    7477.6983     14056.48    1134692.2 
   13600           68   0.49543797 0.00026862709    6535.5271    7430.8264    13966.353    1128948.3 
   13700         68.5   0.50551447 0.00036880897    6424.1503    7581.9587    14006.109    1123252.9 
   13800           69    0.5038453  0.001494263    6433.1186    7556.9238    13990.042    1117604.9 
   13900         69.5   0.49855319 0.00027791053    6457.4563      7477.55    13935.006    1112004.8 
   14000           70   0.50028699 -0.00074826633    6468.1174    7503.5545    13971.672    1106452.2 
   14100         70.5   0.50496345 0.00035839213     6384.447    7573.6943    13958.141    1100943.8 
   14200           71   0.50206167 0.00084996959    6360.5648     7530.172    13890.737      1095481 
   14300         71.5   0.49914415 0.00017424704     6443.863    7486.4136    13930.277    1090062.8 
   14400           72   0.49656363 0.00036425537    6425.9924    7447.7096    13873.702      1084689 
   14500         72.5   0.49439803 0.0013316107    6421.9319    7415.2289    13837.161    1079358.8 
   14600           73   0.49853036 0.00014871551    6349.6959    7477.2075    13826.903    1074072.6 
   14700         73.5   0.50290079 -0.00013123055    6441.1478    7542.7575    13983.905    1068828.8 
   14800           74   0.49894986 -0.00045026655    6441.1564    7483.4995    13924.656    1063627.5 
   14900         74.5   0.49972843 0.0011266481     6444.086    7495.1768    13939.263    1058468.4 
   15000           75   0.50285918 0.00066109055     6374.142    7542.1334    13916.275    1053351.4 
   15100         75.5   0.49811447 -0.00027013987    6400.5295    7470.9698    13871.499    1048274.8 
   15200           76   0.49588751 0.00077250619    6370.5169    7437.5688    13808.086      1043237 
   15300         76.5   0.49093402 0.00078459687    6475.5638     7363.274    13838.838    1038239.1 
   15400           77   0.49413587 0.00030293717    6401.7766    7411.2969    13813.073    1033282.1 
   15500         77.5   0.49531673 0.0007292127    6472.7258     7429.008    13901.734      1028365 
   15600           78    0.5022685 0.00093842504    6441.3256    7533.2741      13974.6    1023486.9 
   15700         78.5   0.49758841 0.00050016693    6524.1784    7463.0797    13987.258    1018647.6 
   15800           79   0.50342713 0.00049649276    6481.4956    7550.6518    14032.147    1013845.6 
   15900         79.5   0.50011699 -5.1248152e-05    6421.3508    7501.0046    13922.355    1009079.4 
   16000           80   0.50241677 0.0012472557    6402.6301     7535.498    13938.128    1004349.5 
   16100         80.5   0.50528579 0.00083392707     6309.433    7578.5289    13887.962    999657.59 
   16200           81   0.50507314 -0.00056394623    6425.0634    7575.3396    14000.403    995002.07 
   16300         81.5   0.49766046 0.00015082271    6442.3213    7464.1604    13906.482     990380.8 
   16400           82    0.5007178 0.0015921547    6410.4907    7510.0159    13920.507    985795.29 
   16500         82.5   0.50626999 0.0012557711    6352.2664    7593.2904    13945.557    981244.89 
   16600           83   0.50224017 0.00039451316    6435.4818    7532.8492    13968.331    976729.45 
   16700         83.5   0.50610044 -0.00027111487    6360.8367    7590.7474    13951.584    972249.97 
   16800           84   0.49194916 0.0010622299    6467.0153    7378.4995    13845.515    967803.98 
   16900         84.5   0.49267417 0.0011656371     6385.282    7389.3735    13774.656    963392.49 
   17000           85   0.50107612 -0.00011721473    6370.5339    7515.3902    13885.924    959013.24 
   17100         85.5   0.50282989 -0.00038517854    6347.4439    7541.6941    13889.138    954665.36 
   17200           86   0.49384662 0.00047867045     6400.428    7406.9586    13807.387     950349.1 
   17300         86.5   0.49669509 0.0010979028    6421.5963    7449.6813    13871.278    946065.14 
   17400           87    0.4931028 -0.00037423352    6524.4835    7395.8024    13920.286    941814.35 
   17500         87.5    0.4957356 0.00065003775    6450.3774    7435.2904    13885.668    937595.97 
   17600           88   0.49404842 0.0010191507     6552.142    7409.9853    13962.127    933408.28 
   17700         88.5   0.50191889 0.00089724633    6496.3974    7528.0305    14024.428     929251.2 
   17800           89   0.50165309 0.00020650104    6477.2738    7524.0438    14001.318    925125.34 
   17900         89.5   0.50543564 0.00056677483    6484.5177    7580.7764    14065.294    921028.63 
   18000           90   0.50559111 0.00016120942    6436.4644    7583.1082    14019.573     916961.2 
   18100         90.5   0.50284639 0.0010518406    6508.3732    7541.9416    14050.315     912922.8 
   18200           91   0.50463797 0.00073789559    6493.8453    7568.8125    14062.658    908913.83 
   18300         91.5   0.50597599 0.00031436072    6479.2156    7588.8809    14068.096     904935.1 
   18400           92   0.50615771 0.00046627701    6455.5183    7591.6064    14047.125    900985.55 
   18500         92.5   0.50988061 0.0019186433    6458.5451    7647.4443    14105.989    897063.68 
   18600           93   0.50526718 0.00026217714     6459.357    7578.2498    14037.607     893169.9 
   18700         93.5   0.50063215 -0.00071151258    6515.3829    7508.7312    14024.114    889303.25 
   18800           94   0.50167695 0.00055964445    6473.5312    7524.4017    13997.933     885463.8 
   18900         94.5    0.5071136 0.00097266284    6431.9114    7605.9433    14037.855    881652.91 
   19000           95   0.50363281 0.0020055668    6470.2874    7553.7367    14024.024    877867.59 
   19100         95.5   0.50324705 0.00055185992    6519.2718    7547.9508    14067.223    874109.86 
   19200           96   0.50342591 -0.00039910669    6531.1272    7550.6335    14081.761    870378.83 
   19300         96.5   0.50302453 -0.0005078452    6480.7732    7544.6133    14025.386    866672.89 
   19400           97   0.49783123 3.8418727e-05    6435.8057    7466.7217    13902.527    862992.32 
   19500         97.5   0.50251823 0.0021193043    6397.9897    7537.0197    13935.009    859337.54 
   19600           98    0.4982999 0.0017285713    6364.6092     7473.751     13838.36    855708.34 
   19700         98.5   0.49888944 -0.00026988983    6514.9927    7482.5933    13997.586    852103.47 
   19800           99   0.49729629 6.7104181e-05    6450.9298    7458.6984    13909.628    848523.26 
   19900         99.5   0.49839948 0.00057545829    6427.5301    7475.2447    13902.775    844968.17 
   20000          100   0.49809939 0.00052294469      6461.32    7470.7438    13932.064    841438.49 
   20100        100.5    0.4984049 0.00071504019    6479.8422    7475.3259    13955.168    837934.37 
   20200          101    0.4972458 0.0010611119    6568.7003    7457.9411    14026.641    834453.46 
   20300        101.5   0.49948426 0.00087778611    6555.6873    7491.5146    14047.202    830995.48 
   20400          102    0.5020331 -0.00013495823    6526.5976    7529.7435    14056.341    827561.46 
   20500        102.5   0.49886279 2.8965796e-05    6409.9423    7482.1935    13892.136    824150.45 
   20600          103   0.49748494 0.00044017875    6447.8041    7461.5279    13909.332    820761.86 
   20700        103.5   0.50789976 0.0022604392    6355.6474    7617.7345    13973.382    817395.85 
   20800          104   0.50700343 3.069451e-05    6472.8114    7604.2909    14077.102    814053.51 
   20900        104.5   0.50247927 0.00087917103    6472.6307    7536.4353    14009.066    810732.62 
   21000          105   0.50263808 8.910073e-05     6418.052    7538.8172    13956.869     807433.9 
   21100        105.5   0.50228583 0.00078816348    6409.9098     7533.534    13943.444     804157.1 
   21200          106   0.49634672  0.001600409    6413.7626    7444.4562    13858.219    800901.85 
   21300        106.5   0.49859314 0.00088761129     6347.785    7478.1492    13825.934    797668.77 
   21400          107   0.50404586 0.00088739898    6399.2635    7559.9318    13959.195    794456.87 
   21500        107.5   0.48955847 -0.00050548305    6403.8669    7342.6427     13746.51     791266.4 
   21600          108   0.49751736 0.00041289812     6362.833    7462.0141    13824.847    788096.77 
   21700        108.5   0.49512414 0.00094437533    6451.1305    7426.1194     13877.25    784948.38 
   21800          109   0.49756365  0.002561425    6387.9896    7462.7084    13850.698    781820.58 
   21900        109.5   0.50237957 0.0012837663    6297.2081    7534.9399    13832.148    778713.52 
   22000          110   0.49649538 -0.0010455388    6379.3101     7446.686    13825.996    775626.95 
   22100        110.5   0.49644794 -0.00042896058    6382.2256    7445.9744      13828.2    772559.69 
   22200          111   0.49027413 0.0024118837     6420.496    7353.3766    13773.873    769510.88 
   22300        111.5   0.49146096 0.00035308036    6436.3891    7371.1772    13807.566    766482.94 
   22400          112   0.49648719 -0.0014896558    6452.8191    7446.5631    13899.382     763474.3 
   22500        112.5    0.5000742 6.8970087e-05    6462.9675    7500.3629     13963.33    760484.83 
   22600          113   0.49921822 0.0024552579    6543.5322    7487.5244    14031.057    757514.08 
   22700        113.5   0.50144437 0.0014984571    6495.3168    7520.9134     14016.23    754562.61 
   22800          114   0.50059902 0.00043362833     6510.464    7508.2344    14018.698    751629.98 
   22900        114.5   0.50222402 -0.0013227803    6471.7354    7532.6069    14004.342    748716.36 
   23000          115   0.49886614 0.0006344031    6408.8376    7482.2438    13891.081     745820.8 
   23100        115.5   0.50007589 0.0012639889    6389.4655    7500.3883    13889.854    742944.01 
   23200          116    0.5016915 0.0010296882    6428.6035    7524.6199    13953.223    740085.88 
   23300        116.5   0.49795716 0.00085145114    6496.0147    7468.6105    13964.625     737245.2 
   23400          117   0.50286564 0.00081555091    6454.0191    7542.2303    13996.249    734422.53 
   23500        117.5   0.49572733 -0.00022069135    6438.6848    7435.1663    13873.851    731618.32 
   23600          118   0.50243132 0.00088978152    6393.6978    7535.7162    13929.414    728830.89 
   23700        118.5   0.50748153  0.001086844    6405.4527    7611.4618    14016.914    726061.31 
   23800          119   0.49420842 0.0018874726     6492.028    7412.3849    13904.413    723308.63 
   23900        119.5   0.49860147 -0.00075622739    6495.8044    7478.2742    13974.079    720573.29 
   24000          120   0.49655829 -0.00077411802    6426.4887    7447.6295    13874.118    717853.25 
   24100        120.5   0.49603994 0.00013630214    6432.2066    7439.8551    13872.062    715149.99 
   24200          121   0.49827702 0.0027392925     6494.566    7473.4079    13967.974    712463.05 
   24300        121.5   0.50284503 0.0015369805    6475.3703    7541.9211    14017.291     709793.4 
   24400          122   0.50287124 -0.0030556833    6446.0668    7542.3144    13988.381    707140.12 
   24500        122.5   0.50125945 -0.0012336854    6479.4639    7518.1398    13997.604    704501.97 
   24600          123   0.50502325 0.0018428345    6487.9038    7574.5912    14062.495    701880.58 
   24700        123.5   0.50103896 0.0043019914    6547.0132    7514.8328    14061.846    699275.23 
   24800          124   0.50373065 0.0011508829     6491.168    7555.2041    14046.372    696686.24 
   24900        124.5    0.5071156 -0.00067423484     6422.938    7605.9734    14028.911    694112.61 
   25000          125   0.50092589 -0.00078273214    6398.4479     7513.137    13911.585    691554.35 
   25100        125.5   0.49763629 -0.00010751253     6411.898    7463.7979    13875.696    689011.37 
   25200          126   0.49741091 0.0011982907    6412.5882    7460.4175    13873.006    686482.94 
   25300        126.5   0.49679066 0.0010484446    6345.6544    7451.1148    13796.769    683970.49 
   25400          127    0.4916251 -1.9195506e-05     6403.365    7373.6391    13777.004    681473.76 
   25500        127.5   0.49859296 0.00078475107     6394.242    7478.1466    13872.389     678991.2 
   25600          128   0.49461755 -0.00046273635    6451.4826    7418.5213    13870.004    676523.05 
   25700        128.5    0.4968725 0.00011884946    6395.7559    7452.3422    13848.098    674069.08 
   25800          129   0.50095783 0.0025399587    6393.9271     7513.616    13907.543     671629.6 
   25900        129.5   0.49677227 0.0018021778    6539.8763     7450.839    13990.715     669204.8 
   26000          130   0.49111914 0.00063651698    6453.8634    7366.0504    13819.914    666794.96 
   26100        130.5   0.49507151 -0.0011195662    6466.0434      7425.33    13891.373    664399.13 
   26200          131   0.49766462 0.0004013018    6541.9826    7464.2228    14006.205    662016.79 
   26300        131.5   0.49692557 0.0019510604    6477.2678    7453.1382    13930.406    659647.33 
   26400          132   0.49747806 -0.00014510931    6484.4334    7461.4246    13945.858       657293 
   26500        132.5   0.49504451 -0.00025541523    6513.9768    7424.9252    13938.902    654952.02 
   26600          133   0.49967039 0.0014629296    6419.3029    7494.3064    13913.609    652624.74 
   26700        133.5   0.50244923 0.0025779095    6472.0648    7535.9848     14008.05    650311.59 
   26800          134   0.50232214 0.0015972616    6473.0814    7534.0786     14007.16    648012.14 
   26900        134.5   0.49871967 0.00042044446    6446.1756     7480.047    13926.223    645726.17 
   27000          135       0.5003 0.00065783469    6456.5608    7503.7496     13960.31    643452.86 
   27100        135.5   0.50248511 0.00049051057    6424.8798     7536.523    13961.403    641192.71 
   27200          136   0.49939002 0.0018513101    6485.4684    7490.1013     13975.57     638945.4 
   27300        136.5   0.49760512 0.0029972639    6446.6397    7463.3304     13909.97    636710.95 
   27400          137    0.4998147 0.0010355687     6399.205    7496.4707    13895.676    634489.42 
   27500        137.5   0.49678243 -0.0002846208    6389.1074    7450.9912    13840.099    632280.26 
   27600          138   0.49723418 -2.765209e-05    6467.8862    7457.7668    13925.653     630083.3 
   27700        138.5   0.49969257 0.0015188181    6424.7422    7494.6391    13919.381    627897.87 
   27800          139   0.49778891 0.0010679859    6442.1045    7466.0869    13908.191    625725.19 
   27900        139.5   0.49659611 0.00094851883    6351.1333    7448.1967     13799.33    623565.04 
   28000          140   0.49122673 -0.00026297088    6404.2966    7367.6642    13771.961    621416.76 
   28100        140.5   0.50119379 0.00079374274    6454.8002    7517.1551    13971.955    619279.73 
   28200          141   0.49705701 -4.5624524e-05    6493.4232    7455.1095    13948.533    617154.77 
   28300        141.5   0.50066407 0.0017767138    6411.9051      7509.21    13921.115    615041.61 
   28400          142   0.50350737 0.0015188231    6442.2763    7551.8553    13994.132    612940.85 
   28500        142.5   0.50732781 0.00024056754    6471.2314    7609.1561    14080.388    610851.68 
   28600          143   0.49323908 -0.00075436695    6520.5166    7397.8463    13918.363    608774.29 
   28700        143.5   0.49900161 0.0022904297    6414.7575    7484.2757    13899.033     606708.2 
   28800          144   0.49996416 0.0017195752    6343.4442    7498.7125    13842.157    604653.47 
   28900        144.5    0.5010331 0.00062899562    6430.8834    7514.7449    13945.628    602609.69 
   29000          145   0.50162333 -0.0019636133    6412.2266    7523.5976    13935.824    600577.85 
   29100        145.5   0.50162349 0.0019427468    6480.6175    7523.5999    14004.217    598556.49 
   29200          146   0.49622258 0.0010854358     6433.245    7442.5943    13875.839    596547.06 
   29300        146.5   0.49466024 0.0003656564    6389.2945    7419.1617    13808.456    594548.89 
   29400          147    0.4916039 -0.00023344317    6394.7009     7373.321    13768.022    592561.14 
   29500        147.5   0.50179462 -0.00076500814    6391.0087    7526.1666    13917.175    590584.13 
   29600          148   0.49955953 0.0024070639    6383.7527    7492.6436    13876.396    588617.86 
   29700        148.5    0.4969731 0.0018848371    6454.2679    7453.8511    13908.119    586662.75 
   29800          149   0.49597237 -0.00077957491     6535.963    7438.8415    13974.805    584717.79 
   29900        149.5   0.50057274 -0.0023406083    6487.7797    7507.8402     13995.62    582783.02 
   30000          150   0.50492306 -7.6233541e-05    6450.4382    7573.0885    14023.527    580857.64 
   30100        150.5   0.49562572 0.00091964564     6582.637    7433.6424    14016.279    578943.06 
   30200          151   0.50132007 0.0027454005    6467.9119     7519.049    13986.961    577038.54 
   30300        151.5   0.50198533 0.00064517774    6509.5875     7529.027    14038.614    575145.56 
   30400          152   0.50212422 -0.00088954194    6470.5711    7531.1101    14001.681    573262.47 
   30500        152.5   0.50363236 0.0015409099    6591.0859    7553.7299    14144.816    571389.08 
   30600          153   0.50511817 0.0024618845    6536.8223    7576.0148    14112.837     569525.6 
   30700        153.5   0.50227411 0.0012806921    6420.4314    7533.3582     13953.79     567672.1 
   30800          154   0.49671631 -0.00021345079    6388.8372    7449.9996    13838.837    565827.83 
   30900        154.5   0.49771819 -0.00047789184    6498.2626    7465.0262    13963.289    563993.51 
   31000          155   0.49440787 0.0016739378    6512.2808    7415.3764    13927.657    562168.43 
   31100        155.5   0.50397137 0.0019754476    6404.5386    7558.8145    13963.353    560353.27 
   31200          156   0.49673433 0.00052523143     6382.576    7450.2698    13832.846    558547.38 
   31300        156.5   0.49984441 -0.0013430766    6405.8201    7496.9164    13902.736    556751.72 
   31400          157    0.4988313  0.002253652    6503.6898    7481.7213    13985.411    554965.22 
   31500        157.5   0.50270942 0.0027216939    6510.2213    7539.8873    14050.109    553188.66 
   31600          158   0.50275457 0.0010895848    6476.6567    7540.5644    14017.221    551421.26 
   31700        158.5   0.50231596 -0.00043599752    6411.4841    7533.9859     13945.47    549662.63 
   31800          159    0.4970548 -0.00018390341     6524.533    7455.0764    13979.609    547913.11 
   31900        159.5   0.50086554 0.0012365958    6465.3503    7512.2318    13977.582    546172.69 
   32000          160    0.4982755 0.0024339326    6408.3116    7473.3851    13881.697    544440.41 
   32100        160.5   0.49333171 0.0021406242    6487.9468    7399.2357    13887.183    542716.81 
   32200          161   0.49507584 0.00033790578    6519.7967    7425.3949    13945.192    541002.74 
   32300        161.5   0.50298662 0.00064466057    6530.7794    7544.0447    14074.824    539297.43 
   32400          162   0.49669644 0.0004965673    6614.3722    7449.7016    14064.074    537600.97 
   32500        162.5   0.49702293 -0.0010283935    6545.4338    7454.5985    14000.032    535913.14 
   32600          163   0.49699775 -0.00088497992    6467.1242    7454.2208    13921.345    534233.72 
   32700        163.5   0.50160239 0.0032498217    6386.5568    7523.2835     13909.84    532562.45 
   32800          164   0.50247154 0.0037786575    6399.1024    7536.3193    13935.422    530900.18 
   32900        164.5   0.50456196 -0.0033676995    6421.7025    7567.6726    13989.375     529247.1 
   33000          165   0.50150984 -0.002196973    6432.7571    7521.8953    13954.652    527601.14 
   33100        165.5    0.5006524 0.0028575624    6397.2183     7509.035    13906.253    525962.34 
   33200          166   0.49899376 0.0022654424    6522.0944    7484.1578    14006.252     524332.7 
   33300        166.5    0.5017101 -7.5546661e-05    6434.4595    7524.8989    13959.358    522711.84 
   33400          167   0.49964878 0.00030860596    6394.6422    7493.9822    13888.624    521098.82 
   33500        167.5    0.4972419 -0.0015715776    6448.6924    7457.8827    13906.575    519494.47 
   33600          168    0.5001595 5.4538256e-05    6463.5046    7501.6423    13965.147     517897.7 
   33700        168.5   0.49981189 0.0036545103    6493.3594    7496.4287    13989.788    516308.84 
   33800          169   0.49654177 0.0018320997    6460.5416    7447.3818    13907.923    514728.48 
   33900        169.5   0.49873766 -0.00012281356    6441.6774    7480.3167    13921.994    513156.14 
   34000          170   0.49671273 0.00079282599    6414.3227    7449.9459    13864.269    511591.43 
   34100        170.5   0.49460757 0.0019713595    6441.7852    7418.3717    13860.157    510034.45 
   34200          171   0.49515956 0.00088396895     6361.965    7426.6506    13788.616     508484.8 
   34300        171.5   0.49875176 0.00046315035    6481.6002    7480.5282    13962.128     506942.5 
   34400          172   0.49757808 -0.00033757418    6446.7507    7462.9249    13909.676    505407.48 
   34500        172.5   0.49341953 0.00057073872    6532.4924    7400.5528    13933.045    503880.05 
   34600          173   0.49656912 0.0016900713    6486.4048     7447.792    13934.197    502360.39 
   34700        173.5   0.49930138 0.0032012969    6525.7146    7488.7717    14014.486    500848.08 
   34800          174   0.50349125 0.0029903181    6391.7686    7551.6136    13943.382    499343.92 
   34900        174.5   0.49931631 -0.0030589728    6364.8497    7488.9957    13853.845     497847.8 
   35000          175   0.49744321 0.00079140907    6402.8884     7460.902     13863.79    496358.04 
   35100        175.5   0.49646485 0.0032276042    6433.9357     7446.228    13880.164    494875.27 
   35200          176   0.49788633 0.0024624607    6413.5433    7467.5481    13881.091    493399.65 
   35300        176.5   0.50348926 -7.9862181e-05    6376.3701    7551.5837    13927.954    491931.41 
   35400          177   0.50487102 0.0015230312    6466.9637     7572.308    14039.272     490470.3 
   35500        177.5   0.49803499 0.00047810292    6401.5488    7469.7778    13871.327    489016.29 
   35600          178   0.49894878 0.0024328388    6481.6443    7483.4832    13965.128    487568.83 
   35700        178.5   0.50026221 0.0022358563    6386.0046    7503.1827    13889.187    486128.58 
   35800          179   0.50023344 0.00082848127    6371.5162    7502.7513    13874.268    484694.57 
   35900        179.5   0.50050744 -0.0037034735    6505.5947    7506.8608    14012.456    483267.55 
   36000          180   0.50395012 -0.00038751339    6502.1102    7558.4959    14060.606    481846.94 
   36100        180.5   0.50536991 0.0032659482    6395.6041    7579.7907    13975.395    480433.33 
   36200          181   0.51093199 0.0049114202    6448.9363    7663.2134     14112.15    479026.55 
   36300        181.5    0.5023555 0.00063605563     6497.899     7534.579    14032.478    477626.85 
   36400          182   0.50280433 9.1514323e-05    6546.9519    7541.3108    14088.263    476233.62 
   36500        182.5   0.50374675 -0.0017089204    6517.9242    7555.4456     14073.37    474847.24 
   36600          183   0.50772429 0.0036865302      6493.33    7615.1028    14108.433    473467.04 
   36700        183.5   0.50460271 0.0017842873    6461.2098    7568.2838    14029.494    472093.99 
   36800          184   0.50014988 0.0019306888    6473.8537     7501.498    13975.352    470727.02 
   36900        184.5   0.50363358 0.0025058452      6434.78    7553.7483    13988.528     469366.6 
   37000          185   0.50095688 0.0010138476    6436.1366    7513.6017    13949.738    468013.01 
   37100        185.5   0.49870277 0.00011120896    6438.5193    7479.7934    13918.313    466665.92 
   37200          186   0.49939207 0.00032865453    6385.1764    7490.1319    13875.308    465324.65 
   37300        186.5   0.50012688 0.0026369045    6371.1098     7501.153    13872.263    463989.38 
   37400          187    0.5001853 0.0033248543    6498.2981    7502.0292    14000.327    462660.13 
   37500        187.5   0.50241639 -0.00089120985    6418.7426    7535.4922    13954.235       461337 
   37600          188   0.49879393 -0.00049600056    6526.0725    7481.1607    14007.233     460019.5 
   37700        188.5   0.50206629 0.0010424106    6374.7691    7530.2413     13905.01    458708.21 
   37800          189   0.49688706  0.001688938    6427.5473    7452.5606    13880.108    457402.83 
   37900        189.5   0.49976009 0.0018229642    6453.8439    7495.6518    13949.496    456103.57 
   38000          190   0.50558019 0.00011391714    6408.5983    7582.9444    13991.543    454810.62 
   38100        190.5   0.49659216 0.0023052771    6450.0052    7448.1374    13898.143    453523.71 
   38200          191   0.49448317 0.00023040231    6334.7882    7416.5058    13751.294    452242.87 
   38300        191.5   0.50303195 0.0014572058    6342.8287    7544.7248    13887.553    450967.46 
   38400          192    0.5086021 0.00074695855     6374.867    7628.2685    14003.136    449697.66 
   38500        192.5   0.50404891 0.0020185703    6406.4836    7559.9776    13966.461    448433.54 
   38600          193   0.49939665  0.002669733    6495.3839    7490.2006    13985.585    447175.73 
   38700        193.5   0.49898258 -0.001423957    6525.0727    7483.9902    14009.063    445923.76 
   38800          194   0.49812403 -0.00036934568    6559.7674    7471.1133    14030.881    444677.35 
   38900        194.5    0.4969416 0.0030560182    6385.1207    7453.3786    13838.499    443436.57 
   39000          195   0.49709804  0.001554899    6416.2929    7455.7249    13872.018    442201.33 
   39100        195.5   0.49636751 0.0021397742    6452.8092    7444.7681    13897.577    440971.48 
   39200          196   0.49454073 -0.0026667883    6506.6883    7417.3691    13924.057    439747.57 
   39300        196.5   0.49678846 -0.001850107    6541.6648    7451.0817    13992.747    438529.36 
   39400          197   0.49931265 0.0031695029    6518.0993    7488.9407     14007.04     437316.3 
   39500        197.5    0.5030719 0.0033269565    6480.4977     7545.324    14025.822    436108.59 
   39600          198     0.495873 0.00033225189    6395.6064    7437.3513    13832.958     434906.4 
   39700        198.5   0.49800212 -0.00050381208    6351.4866    7469.2849    13820.771    433709.76 
   39800          199   0.49472316 0.00051726403    6414.4526    7420.1053    13834.558    432518.12 
   39900        199.5   0.49947295 0.00074271977    6340.5716     7491.345    13831.917    431331.54 
   40000          200   0.49638523  0.001995104    6391.3895    7445.0339    13836.423    430150.25 
   40100        200.5   0.49780734 0.00031802326    6462.0974    7466.3635    13928.461    428974.52 
   40200          201   0.50287362 0.0017565385    6378.7028      7542.35    13921.053    427803.82 
   40300        201.5    0.5039173  0.002342314    6525.1415    7558.0036    14083.145    426637.93 
   40400          202   0.50285253 -0.00017945741     6410.609    7542.0337    13952.643    425477.63 
   40500        202.5   0.50554035 -0.00062061396    6464.4756     7582.347    14046.823    424322.78 
   40600          203   0.49750484 -0.0016821046    6502.8216    7461.8263    13964.648    423172.88 
   40700        203.5   0.49912362 0.0036346358    6482.0884    7486.1056    13968.194    422027.56 
   40800          204   0.49698615 0.0046621959    6576.6502    7454.0468    14030.697     420887.6 
   40900        204.5   0.50801759 -0.0010229975    6417.7474    7619.5019    14037.249    419753.21 
   41000          205    0.4930294 -0.0006943777    6549.6813    7394.7015    13944.383    418622.96 
   41100        205.5   0.50060533 0.00057181999    6447.7604     7508.329    13956.089    417497.96 
   41200          206   0.49473731 0.0024547905    6453.6544    7420.3176    13873.972    416377.56 
   41300        206.5   0.49566086 0.0035167296    6453.6112    7434.1694    13887.781    415262.18 
   41400          207   0.49903829 0.00056141644     6442.516    7484.8258    13927.342    414152.07 
   41500        207.5   0.49818639 -0.0014217661    6438.8062    7472.0486    13910.855     413047.2 
   41600          208   0.49839687 0.00012881808    6398.9081    7475.2055    13874.114    411946.53 
   41700        208.5    0.5020151 0.0035728527    6377.4146    7529.4735    13906.888    410850.28 
   41800          209   0.49873295 0.0035527003    6472.3041    7480.2461     13952.55    409758.88 
   41900        209.5   0.50323112 -0.0023304825    6363.9369     7547.712    13911.649    408672.38 
   42000          210   0.49760774 -0.00062624298    6356.3415    7463.3698    13819.711    407590.19 
   42100        210.5   0.49572111 0.00046258338    6403.8065    7435.0731     13838.88    406512.31 
   42200          211   0.50359304 0.0027572882    6338.2359    7553.1402    13891.376       405439 
   42300        211.5   0.49758126 0.0024967209    6403.0768    7462.9725    13866.049    404370.53 
   42400          212   0.50163731 -0.00028211377    6412.5401    7523.8072    13936.347    403307.18 
   42500        212.5   0.49784353 0.0031122349     6435.948    7466.9062    13902.854    402247.54 
   42600          213   0.49586851 0.0040482947    6345.2189    7437.2839    13782.503    401192.48 
   42700        213.5   0.49924137 0.0017580752    6332.5385    7487.8717     13820.41       400142 
   42800          214   0.49505839 -0.0032735649    6486.5319    7425.1332    13911.665    399096.19 
   42900        214.5   0.50550413 -0.0023647424    6469.6222    7581.8037    14051.426    398054.63 
   43000          215   0.49393265 0.0031964579    6483.4916    7408.2488     13891.74    397017.22 
   43100        215.5   0.49486057 0.0052027558    6464.2607    7422.1663    13886.427    395984.65 
   43200          216    0.4964451 0.0031709948    6513.8814    7445.9318    13959.813    394956.84 
   43300        216.5   0.50000448 -0.0029824036    6517.4676    7499.3171    14016.785    393933.32 
   43400          217   0.49947405 0.0014262097    6433.3402    7491.3615    13924.702    392913.71 
   43500        217.5    0.4971487 0.0019558941    6327.0196    7456.4847    13783.504     391898.5 
   43600          218   0.49644472 0.0021766079    6434.7014    7445.9261    13880.628    390886.93 
   43700        218.5   0.49578315 1.6264424e-05    6414.1349    7436.0035    13850.138    389879.66 
   43800          219   0.50095572 0.0020852284    6444.5684    7513.5844    13958.153    388876.84 
   43900        219.5    0.5022395 0.0035730288    6442.9536    7532.8391    13975.793    387878.47 
   44000          220   0.49717984 0.0012338032    6414.0854    7456.9518    13871.037    386883.98 
   44100        220.5   0.49964261 -0.0017710207    6399.7013    7493.8897    13893.591    385893.93 
   44200          221   0.50067823 0.0020947659     6445.888    7509.4224     13955.31    384907.74 
   44300        221.5   0.49652226 0.0033096928    6478.7798    7447.0891    13925.869     383926.1 
   44400          222   0.50182855 0.0053611773    6381.3341    7526.6755     13908.01    382948.13 
   44500        222.5   0.50113538 0.0015966747    6438.4532     7516.279    13954.732    381974.36 
   44600          223   0.49349252 7.3215709e-05    6411.5678    7401.6475    13813.215    381004.19 
   44700        223.5   0.48964011 0.0021343476    6463.9419    7343.8672    13807.809     380037.7 
   44800          224   0.49065981 0.0015300563    6492.1688    7359.1611     13851.33    379075.19 
   44900        224.5    0.5011483 -0.00073512223    6377.0546    7516.4728    13893.527    378116.65 
   45000          225   0.49866021 0.0014929521    6402.1541    7479.1551    13881.309    377161.62 
   45100        225.5   0.49614711 0.0033577886    6439.8701    7441.4624    13881.332    376210.69 
   45200          226   0.50108313 0.0014697464     6379.377    7515.4953    13894.872     375264.1 
   45300        226.5   0.49776013 0.0036289667    6429.5585    7465.6552    13895.214    374321.02 
   45400          227   0.49802256  0.002113286    6406.0929    7469.5913    13875.684    373382.16 
   45500        227.5   0.49648106 -0.00054683173    6460.1619    7446.4712    13906.633    372447.01 
   45600          228   0.49665482 0.0013922915    6414.0934    7449.0773    13863.171    371515.64 
   45700        228.5   0.49488754 0.0016026727     6417.257    7422.5708    13839.828    370587.69 
   45800          229   0.49641841 0.0017205805    6507.3319    7445.5315    13952.863    369663.45 
   45900        229.5   0.50399132 0.0029797054    6403.4078    7559.1138    13962.522    368743.21 
   46000          230    0.4920821 0.00064564314    6450.9462    7380.4934     13831.44    367826.97 
   46100        230.5   0.49830021 0.00095430654    6413.7375    7473.7557    13887.493    366914.22 
   46200          231   0.49784244 0.0025651739    6417.3354    7466.8898    13884.225    366005.35 
   46300        231.5   0.49570946 0.0037782911    6456.5985    7434.8984    13891.497    365100.36 
   46400          232   0.49653312 5.1993689e-05    6424.8491     7447.252    13872.101    364199.18 
   46500        232.5   0.50289404 -0.00021330381    6460.9058    7542.6562    14003.562    363301.47 
   46600          233   0.49944774 0.0010557751     6406.755     7490.967    13897.722    362406.74 
   46700        233.5   0.49905789  0.002283302    6481.1831    7485.1197    13966.303    361515.47 
   46800          234   0.50490649 0.0032825377    6572.0015      7572.84    14144.842    360627.77 
   46900        234.5   0.50275545  0.001310446      6445.96    7540.5776    13986.538    359743.62 
   47000          235   0.49545604 -8.2347509e-05    6394.2143    7431.0974    13825.312    358862.92 
   47100        235.5   0.49579357 0.0024841805    6360.3225    7436.1599    13796.482    357985.59 
   47200          236   0.49624609 0.0018126325    6474.9325    7442.9469    13917.879    357112.15 
   47300        236.5   0.49901385 -0.0014540789    6465.5571    7484.4593    13950.016    356242.25 
   47400          237   0.49904038 0.00058909899    6480.5012    7484.8571    13965.358    355375.21 
   47500        237.5   0.50426826 0.00024493078    6414.3115    7563.2674    13977.579    354511.63 
   47600          238   0.50103173 0.00080482878    6517.3895    7514.7245    14032.114    353651.07 
   47700        238.5   0.50520678 0.0026389128    6473.1577    7577.3438    14050.502    352794.21 
   47800          239   0.50567899 0.0016655243    6554.6747    7584.4263    14139.101    351941.32 
   47900        239.5   0.50437333 -0.0002094677    6516.4212    7564.8434    14081.265    351091.69 
   48000          240   0.49703292 -0.00049813795     6520.338    7454.7483    13975.086    350244.95 
   48100        240.5   0.50462611 0.0010671395    6447.8234    7568.6347    14016.458    349401.42 
   48200          241   0.50167171 0.0018685503     6516.549    7524.3231    14040.872    348561.66 
   48300        241.5   0.50099264 0.0011633963    6599.4702    7514.1381    14113.608    347724.99 
   48400          242    0.4988995 0.00077409563    6462.6272    7482.7441    13945.371    346891.11 
   48500        242.5   0.49970141 0.00012079173     6447.107    7494.7716    13941.879    346060.68 
   48600          243   0.49468618 0.0011431668    6501.6568    7419.5507    13921.207    345233.51 
   48700        243.5   0.49563278 0.0034991092    6516.6698    7433.7483    13950.418     344409.6 
   48800          244   0.49609762 0.0022521219      6549.92    7440.7202     13990.64    343589.28 
   48900        244.5    0.4950491 0.0029410183    6550.3252    7424.9939    13975.319    342771.66 
   49000          245   0.49288405 -0.00079000839    6463.9123    7392.5214    13856.434    341957.17 
   49100        245.5   0.49686765 0.0025153291    6453.8562    7452.2695    13906.126    341145.74 
   49200          246    0.4991798 0.0014357802    6494.1791    7486.9483    13981.127    340337.45 
   49300        246.5   0.49075621 0.0048840248    6605.2027    7360.6071     13965.81     339532.1 
   49400          247   0.49430528 0.0010024159    6445.5421    7413.8377     13859.38     338730.2 
   49500        247.5   0.50394657 0.00038680554    6404.1593    7558.4426    13962.602    337930.96 
   49600          248   0.49561933 0.0025167427    6495.2901    7433.5465    13928.837    337134.96 
   49700        248.5   0.49640066 -5.1506906e-05    6480.8595    7445.2653    13926.125    336342.04 
   49800          249   0.49662615 0.0029310559    6453.8316    7448.6473    13902.479    335551.57 
   49900        249.5   0.49278768 0.0004398875    6506.8345     7391.076    13897.911     334764.2 
   50000          250    0.4974135 -0.00098473281    6411.2825    7460.4564    13871.739       333980 
   50100        250.5    0.4943314 0.0016352396    6411.9394    7414.2295    13826.169       333199 
   50200          251   0.49292303 0.0045387392    6401.3492     7393.106    13794.455    332420.64 
   50300        251.5   0.49315135 0.0046750245    6390.7057    7396.5306    13787.236    331645.46 
   50400          252   0.49652534 0.0013343523    6354.6343    7447.1353     13801.77    330873.57 
   50500        252.5   0.49150867 -0.003952423     6483.851    7371.8928    13855.744    330104.93 
   50600          253   0.49694006 0.00052179388    6488.0559    7453.3555    13941.411    329338.69 
   50700        253.5   0.49776891 0.0061204465    6461.5054     7465.787    13927.292    328575.07 
   50800          254   0.50256964 0.0039976571    6446.4371    7537.7908    13984.228    327814.62 
   50900        254.5   0.50046012 0.00081550898    6469.4757     7506.151    13975.627    327057.17 
   51000          255    0.4962877 0.0015218363    6540.8937     7443.571    13984.465    326302.25 
   51100        255.5    0.5022082 0.0038449827    6413.3261    7532.3697    13945.696    325550.03 
   51200          256   0.50580937 0.0028647802    6434.9181    7586.3819      14021.3    324800.69 
   51300        256.5   0.50433702 0.0027871898     6411.617    7564.2988    13975.916    324054.02 
   51400          257   0.50278636 0.0029146621    6466.4541    7541.0413    14007.495     323310.1 
   51500        257.5   0.49668518 -4.6022146e-06    6465.7737    7449.5327    13915.306    322569.19 
   51600          258   0.49486246 0.00064304083    6487.5824    7422.1945    13909.777    321830.96 
   51700        258.5   0.50230811  0.005471598    6559.2047    7533.8682    14093.073       321095 
   51800          259   0.49794824  0.002267778    6507.7915    7468.4767    13976.268    320362.58 
   51900        259.5   0.49786292 -0.0029679722    6495.5761     7467.197    13962.773    319632.66 
   52000          260   0.50501867 0.00081172831    6452.0476    7574.5225     14026.57    318904.89 
   52100        260.5    0.4955689 0.0043500372    6505.3492    7432.7901    13938.139     318179.9 
   52200          261   0.49792832 0.00034389103     6470.487    7468.1779    13938.665    317457.69 
   52300        261.5   0.49589336 0.0016267257    6425.5116    7437.6566    13863.168     316737.6 
   52400          262   0.49992861 0.0026218983    6484.3903    7498.1792     13982.57    316020.27 
   52500        262.5   0.49742223 0.0043570947    6509.0472    7460.5873    13969.634    315305.88 
   52600          263   0.49762517 0.0024731938    6414.7114    7463.6311    13878.343    314594.27 
   52700        263.5   0.49944391 0.0012135618    6415.9892    7490.9095    13906.899    313885.23 
   52800          264   0.50236855 0.0023188016    6398.9186    7534.7747    13933.693     313178.4 
   52900        264.5   0.49874281 -0.00062526067    6437.5816    7480.3941    13917.976    312474.38 
   53000          265   0.50211434 0.0054952878    6438.3925     7530.962    13969.354    311772.67 
   53100        265.5   0.49952929 0.0027313178    6514.0644    7492.1901    14006.254    311074.52 
   53200          266   0.50178911 0.00035504521    6453.8512    7526.0839    13979.935    310378.86 
   53300        266.5   0.49757996 0.0010269776    6484.1275     7462.953    13947.081    309685.25 
   53400          267   0.49691986 -0.00062372487    6460.4461    7453.0525    13913.499    308994.29 
   53500        267.5   0.50387226 0.0017527407    6454.7714    7557.3282      14012.1    308305.52 
   53600          268    0.4985699 0.0044104972    6461.1353    7477.8007    13938.936    307619.11 
   53700        268.5   0.49503812 -0.0013982523    6454.7989    7424.8292    13879.628    306935.44 
   53800          269   0.50332645 -0.00085483677    6325.0947    7549.1417    13874.236    306253.97 
   53900        269.5   0.49199246 0.0063210507    6399.8576    7379.1489    13779.006    305574.48 
   54000          270    0.4972582 0.0032883928    6406.5218     7458.127    13864.649    304897.78 
   54100        270.5   0.49518715 -0.00069770687     6440.712    7427.0644    13867.776    304223.51 
   54200          271   0.49730965 -0.0018717471    6445.5031    7458.8987    13904.402    303551.32 
   54300        271.5   0.49725864 0.00055818246    6431.1314    7458.1337    13889.265    302881.28 
   54400          272   0.50110439  0.002618254    6429.0653    7515.8142     13944.88    302214.01 
   54500        272.5   0.49821965 0.0059019434    6401.5341    7472.5475    13874.082    301549.16 
   54600          273   0.50019074 0.0014464244    6493.5378    7502.1108    13995.649    300887.06 
   54700        273.5   0.49465545 -0.0031362771    6536.7486    7419.0898    13955.838    300227.57 
   54800          274   0.49794126  0.001268626    6437.2175     7468.372     13905.59    299570.16 
   54900        274.5   0.49619428 0.0067527544    6492.5746      7442.17    13934.745    298914.89 
   55000          275   0.49641685 0.0051989209    6553.9575    7445.5081    13999.466    298262.24 
   55100        275.5   0.50068911 -0.001141994    6577.9357    7509.5856    14087.521    297612.18 
   55200          276   0.50253607 0.00064944731    6464.4615    7537.2873    14001.749    296963.82 
   55300        276.5   0.49743261  0.003666814    6490.3194     7460.743    13951.062    296317.94 
   55400          277   0.50030217  0.004510134     6410.187    7503.7821    13913.969    295674.16 
   55500        277.5   0.50310187 -0.0016108725    6320.4191    7545.7734    13866.192    295032.85 
   55600          278   0.49823051 0.0033664151    6399.2223    7472.7103    13871.933    294393.31 
   55700        278.5   0.50012722 0.00032212303    6436.4654    7501.1582    13937.624    293756.79 
   55800          279   0.50369857 0.0042304141    6355.1695     7554.723    13909.892    293122.23 
   55900        279.5   0.50684211 0.0014176008    6395.3015    7601.8714    13997.173    292489.87 
   56000          280   0.50929099 0.0063743991    6467.5552     7638.601    14106.156    291859.49 
   56100        280.5   0.50025486 0.0036884217    6556.2747    7503.0725    14059.347    291231.43 
   56200          281   0.50696327 -0.00039085695     6528.254    7603.6887    14131.943    290605.86 
   56300        281.5   0.51065523 0.0050614459     6492.313    7659.0624    14151.375    289982.38 
   56400          282    0.5040507 0.0034865554    6471.7519    7560.0045    14031.756    289361.53 
   56500        282.5   0.50420519 0.0025916758     6445.558    7562.3216     14007.88    288742.48 
   56600          283   0.50402145 0.0014956278    6411.8466    7559.5658    13971.412    288125.34 
   56700        283.5   0.49951599 -0.0016237708    6497.2074    7491.9905    13989.198    287510.27 
   56800          284   0.50151711 -0.0012678297    6566.5234    7522.0044    14088.528    286896.74 
   56900        284.5   0.50272771 0.0046987578    6547.5038    7540.1616    14087.665    286285.14 
   57000          285   0.49695638   0.00598421    6485.4384    7453.6003    13939.039    285675.81 
   57100        285.5   0.50549584 0.00070513656    6347.3195    7581.6793    13928.999       285069 
   57200          286   0.50050255 -0.0028958437    6389.7036    7506.7875    13896.491    284464.21 
   57300        286.5   0.50133863 0.00052246295    6486.9706    7519.3274    14006.298    283861.15 
   57400          287   0.50431477 0.0031040575    6595.2758     7563.965    14159.241    283260.28 
   57500        287.5   0.50263928 0.00031216527    6558.7419    7538.8352    14097.577    282661.93 
   57600          288   0.49911806  0.004923876     6516.572    7486.0223    14002.594    282065.39 
   57700        288.5   0.50649443 0.00043224014    6453.9332    7596.6567     14050.59    281470.91 
   57800          289   0.50033674 -0.0019739719    6482.0294    7504.3006     13986.33    280878.49 
   57900        289.5   0.49860347 0.0022100955    6467.4957    7478.3042      13945.8    280287.85 
   58000          290   0.49945579 0.0022120475    6568.2595    7491.0877    14059.347    279699.38 
   58100        290.5   0.50262123 0.00090827501    6551.3301    7538.5646    14089.895    279112.96 
   58200          291   0.50009728 0.00043598958    6503.7764    7500.7091    14004.486     278528.7 
   58300        291.5   0.50018773 0.0062972462    6397.1754    7502.0656    13899.241    277945.94 
   58400          292   0.50020927 0.0045918135    6443.7554    7502.3887    13946.144    277365.14 
   58500        292.5   0.49402381 -0.00043536203    6510.2049    7409.6161    13919.821    276786.57 
   58600          293    0.5013834 -0.00068700595     6329.775    7519.9989    13849.774    276210.24 
   58700        293.5   0.49773639 0.0018700008    6417.9319    7465.2992    13883.231     275635.5 
   58800          294   0.50193023 0.0070109732    6418.0527    7528.2005    13946.253    275062.46 
   58900        294.5   0.49980949 0.0014756325    6504.3732    7496.3927    14000.766    274491.78 
   59000          295   0.49387366 0.0017051124    6466.7355    7407.3642      13874.1    273922.98 
   59100        295.5   0.49736745  0.007832803    6481.7967    7459.7657    13941.562    273355.87 
   59200          296   0.50144337 0.00075243577    6502.3415    7520.8984     14023.24    272790.92 
   59300        296.5   0.50623981 -0.00081506639    6429.3426    7592.8377     14022.18    272227.67 
   59400          297   0.49694016 0.0019388829    6609.1988    7453.3569    14062.556    271666.25 
   59500        297.5    0.4984762 0.0056759249    6516.9413    7476.3952    13993.337    271106.39 
   59600          298   0.50304358 0.0060048943    6464.8132    7544.8992    14009.712    270548.69 
   59700        298.5   0.50343961 -7.3074986e-05    6425.6037     7550.839    13976.443    269993.09 
   59800          299   0.49925165 0.0023154703     6439.557    7488.0259    13927.583    269438.85 
   59900        299.5     0.498565 0.0043160567    6361.4306    7477.7272    13839.158    268886.49 
   60000          300   0.50194673 0.0046237868     6344.796     7528.448    13873.244     268335.9 
   60100        300.5   0.50060002 0.0050137132    6480.2732    7508.2494    13988.523    267787.44 
   60200          301   0.49868779   0.00260976    6462.1367    7479.5688    13941.705    267241.14 
   60300        301.5   0.49749922 0.0028765375    6434.8454     7461.742    13896.587    266696.47 
   60400          302   0.49451542 -0.00081765588    6410.3069    7416.9896    13827.296    266153.85 
   60500        302.5   0.49791223 0.0014682853    6418.1205    7467.9365    13886.057    265612.77 
   60600          303    0.4998979 0.0059510158    6430.9686    7497.7187    13928.687    265073.63 
   60700        303.5   0.49959799 0.0059033021    6418.1813    7493.2204    13911.402    264536.29 
   60800          304    0.4978754 0.00087200817    6317.2917    7467.3841    13784.676    264000.83 
   60900        304.5    0.4967114 0.00090975653    6391.5274     7449.926    13841.453    263466.66 
   61000          305   0.50194605 0.0034566201      6532.65    7528.4378    14061.088     262934.4 
   61100        305.5   0.50285506 0.0058951802    6451.9308    7542.0716    13994.002    262404.23 
   61200          306   0.50455204 0.0042921169    6499.7512    7567.5238    14067.275    261875.72 
   61300        306.5   0.50546133 -5.1790949e-05    6520.2715    7581.1618    14101.433    261348.89 
   61400          307   0.50101868 0.0013393047    6543.7764    7514.5287    14058.305    260823.27 
   61500        307.5   0.49868073 0.0046552787    6508.5724    7479.4629    13988.035    260299.16 
   61600          308   0.49764069 0.0017564298    6403.4592    7463.8639    13867.323    259777.04 
   61700        308.5   0.49398651 0.0010024362     6388.718    7409.0567    13797.775    259256.49 
   61800          309   0.49467296 -0.00011120674    6411.3864    7419.3524    13830.739    258737.78 
   61900        309.5   0.49808759 0.0016519055    6511.5388    7470.5668    13982.106    258220.53 
   62000          310   0.50072829 0.0011376529     6428.159    7510.1733    13938.332    257704.82 
   62100        310.5    0.5037904 0.00020130422    6423.0073    7556.1003    13979.108    257190.67 
   62200          311   0.49589735  0.001432698    6433.4441    7437.7164    13871.161    256678.15 
   62300        311.5   0.49886372 0.0044314829    6393.9758    7482.2075    13876.183    256167.57 
   62400          312   0.49992596 0.0029590096    6484.9243    7498.1394    13983.064    255658.43 
   62500        312.5   0.50451544 -0.00029978035      6405.02    7566.9749    13971.995    255150.95 
   62600          313   0.50311086 0.0022935021    6399.5186    7545.9083    13945.427    254645.06 
   62700        313.5   0.49747806 0.0081932789    6510.3425    7461.4248    13971.767    254140.73 
   62800          314   0.50109384 0.0011594636    6440.9296     7515.656    13956.586    253638.42 
   62900        314.5   0.50428594 -0.0021959655    6415.6487    7563.5327    13979.181    253137.78 
   63000          315   0.50245266 0.0047519642    6435.2517    7536.0362    13971.288     252638.7 
   63100        315.5   0.50083975 0.0048071374    6445.3559     7511.845    13957.201    252141.59 
   63200          316   0.49367712 -0.00010475101    6597.6389    7404.4163    14002.055    251646.01 
   63300        316.5   0.49982626 0.00036341979    6529.3934    7496.6442    14026.038    251152.05 
   63400          317   0.50094339 0.0084455813    6503.8618    7513.3994    14017.261    250659.13 
   63500        317.5   0.50266898 0.0042982475    6456.3154    7539.2806    13995.596    250167.92 
   63600          318   0.49801379 -0.0016595193    6497.3894    7469.4598    13966.849    249678.24 
   63700        318.5   0.50249869 0.0028949989    6442.4018    7536.7266    13979.128    249189.85 
   63800          319   0.50149592 0.0068112436    6405.3064    7521.6865    13926.993    248702.85 
   63900        319.5   0.50140164 0.0087635331    6363.7456    7520.2724    13884.018    248217.44 
   64000          320   0.49956538 0.0019209554    6368.8303    7492.7314    13861.562    247734.15 
   64100        320.5   0.49952858 -0.006466997    6468.7265    7492.1794    13960.906    247252.49 
   64200          321    0.5025427 0.0052682516    6464.5019    7537.3867    14001.889    246771.59 
   64300        321.5   0.49672235 0.0092770393    6493.5074    7450.0901    13943.598    246292.36 
   64400          322   0.49451811 0.0013443332    6402.4435    7417.0299    13819.473    245814.71 
   64500        322.5   0.50357287 -0.0035065992    6323.5525    7552.8377     13876.39    245338.72 
   64600          323   0.49997969 0.0021851537    6406.4996    7498.9454    13905.445    244863.84 
   64700        323.5    0.5055491 0.0090984706    6397.1463    7582.4782    13979.625    244390.52 
   64800          324   0.49937323 0.0057747443    6334.5618    7489.8495    13824.411    243918.89 
   64900        324.5   0.49984004 0.00064847496    6361.0029    7496.8509    13857.854    243448.94 
   65000          325   0.49993782 0.00074094421    6400.2949    7498.3173    13898.612    242980.68 
   65100        325.5   0.49994088 0.0075354655    6407.1017    7498.3633    13905.465    242513.49 
   65200          326   0.49307411 0.0038069055     6454.796    7395.3721    13850.168    242047.91 
   65300        326.5   0.49835594 0.00062339732    6373.6571    7474.5915    13848.249    241583.48 
   65400          327   0.49559029 -0.0015309455    6430.1112    7433.1109    13863.222    241120.32 
   65500        327.5   0.49395018 0.0010585713     6549.669    7408.5117    13958.181    240658.52 
   65600          328   0.49828577 0.0067550604    6387.8093    7473.5391    13861.348    240198.09 
   65700        328.5   0.50423565  0.001215099    6317.0517    7562.7784     13879.83    239739.28 
   65800          329    0.4947752 -0.0013326095    6433.4689    7420.8858    13854.355    239281.68 
   65900        329.5   0.50506174 0.00072803128    6484.8189    7575.1684    14059.987    238825.66 
   66000          330   0.49995236 0.0032130475    6464.3036    7498.5355    13962.839    238371.11 
   66100        330.5   0.50193814 0.0020556349    6361.9443    7528.3192    13890.264    237918.21 
   66200          331   0.49216518 2.8155145e-06    6393.9596    7381.7395    13775.699    237466.86 
   66300        331.5   0.49530376 0.0037308735    6431.5465    7428.8135     13860.36    237016.87 
   66400          332   0.49421762 0.0033451169    6386.9047     7412.523    13799.428    236568.07 
   66500        332.5   0.49541809 -0.0001704694    6329.6645    7430.5282    13760.193    236120.64 
   66600          333   0.50178256 0.0039392657    6472.1532    7525.9857    13998.139     235674.4 
   66700        333.5   0.50252472 0.0042050052    6499.6381     7537.117    14036.755    235229.73 
   66800          334   0.50072194 0.00058443584    6448.7224     7510.078      13958.8    234786.25 
   66900        334.5   0.49538973 0.0027261617    6474.7458    7430.1028    13904.849    234344.25 
   67000          335   0.49589582 0.0049657318    6361.4695    7437.6935    13799.163    233903.48 
   67100        335.5   0.50105279 0.0020374111    6433.4676    7515.0402    13948.508     233464.1 
   67200          336   0.49769201 -0.00034904976     6479.304    7464.6336    13943.938    233026.17 
   67300        336.5   0.49809129 0.0046110709    6447.4364    7470.6223    13918.059    232589.35 
   67400          337   0.50039645 0.0065168689    6548.1144    7505.1961    14053.311    232153.65 
   67500        337.5   0.49900486 -0.00098679491    6510.5152    7484.3244     13994.84    231719.57 
   67600          338   0.50039446 0.00095287242    6463.9163    7505.1663    13969.083    231286.79 
   67700        338.5   0.50243546 0.0064447921    6399.4751    7535.7783    13935.253    230855.32 
   67800          339    0.5034423 0.0059270681    6385.8332    7550.8793    13936.713     230425.3 
   67900        339.5   0.49937439 -0.0015333676    6421.7622    7489.8668    13911.629    229996.59 
   68000          340   0.50289963 0.0021294834    6467.1573    7542.7401    14009.897    229569.01 
   68100        340.5   0.50121747 0.0060692918    6433.8507    7517.5102    13951.361    229142.85 
   68200          341   0.49916523 0.0056792645    6474.8127    7486.7297    13961.542       228718 
   68300        341.5   0.50307296 0.0034550951    6429.4016    7545.3398    13974.741    228294.36 
   68400          342   0.48862695 0.0047210968    6415.8092    7328.6713     13744.48     227871.7 
   68500        342.5   0.49810399 0.00085618693    6407.3428    7470.8126    13878.155    227450.43 
   68600          343   0.50068722 0.0041266256    6428.5702    7509.5573    13938.127    227030.21 
   68700        343.5   0.49618634 0.0026272943    6460.2027    7442.0508    13902.254    226611.36 
   68800          344   0.49298036 0.0047281083    6412.2412    7393.9659    13806.207    226193.81 
   68900        344.5   0.49795908 0.0052058406    6353.0692    7468.6393    13821.708    225777.67 
   69000          345   0.49849875  0.001863847    6440.5913    7476.7335    13917.325    225362.73 
   69100        345.5   0.50296153 0.0016627324    6444.1043    7543.6684    13987.773    224949.26 
   69200          346   0.50486587 0.0049886181    6499.7993    7572.2307     14072.03    224536.76 
   69300        346.5   0.49796387 0.0033941952    6564.4835    7468.7111    14033.195    224125.57 
   69400          347    0.4954459 0.0057638069    6536.7341    7430.9454     13967.68    223715.31 
   69500        347.5   0.49301889 -0.0011011915    6446.4329    7394.5438    13840.977     223306.6 
   69600          348   0.49681686 -0.00071450969    6409.1914    7451.5077    13860.699       222899 
   69700        348.5   0.49945872 0.0040760668    6432.8287    7491.1316     13923.96    222492.46 
   69800          349    0.5035655 0.0081512759    6399.8035    7552.7272    13952.531    222087.12 
   69900        349.5   0.49567827 0.0069169823    6495.5196    7434.4305     13929.95     221682.9 
   70000          350   0.49227803 0.0016094183    6474.5791     7383.432    13858.011    221279.81 
   70100        350.5   0.49613574 -0.0011288079    6356.5639    7441.2919    13797.856    220877.76 
   70200          351   0.49888821 0.0037579924    6449.6905    7482.5749    13932.265    220476.87 
   70300        351.5   0.49825149  0.004478026    6487.1793    7473.0249    13960.204    220077.16 
   70400          352   0.50453927 0.0051877772    6510.6697    7567.3322    14078.002    219678.83 
   70500        352.5   0.49951368 0.0020457389    6489.6835    7491.9559    13981.639    219281.78 
   70600          353   0.49927218 0.0058484737      6365.58    7488.3338    13853.914     218885.8 
   70700        353.5   0.50023848 0.0030844192     6355.836    7502.8269    13858.663    218491.13 
   70800          354   0.49706207 0.0008185484    6464.8877    7455.1854    13920.073    218097.54 
   70900        354.5   0.50069444 0.00079181311    6456.9702    7509.6656    13966.636       217705 
   71000          355   0.49450417 0.0007244924    6459.2306    7416.8207    13876.051    217313.66 
   71100        355.5   0.49849342 0.0028233776    6524.6089    7476.6535    14001.262     216923.3 
   71200          356   0.49870349 0.0047911791    6421.0983    7479.8042    13900.902    216534.12 
   71300        356.5   0.50012372 0.0014192076    6429.9811    7501.1057    13931.087    216146.24 
   71400          357   0.49824508 0.0046019733    6506.2706    7472.9288    13979.199    215759.15 
   71500        357.5   0.49666718 0.0050511457    6378.5126    7449.2627    13827.775    215373.37 
   71600          358   0.48960013 -0.0038315285    6475.1275    7343.2675    13818.395    214988.85 
   71700        358.5   0.50144796 -0.0023942582    6366.4636    7520.9673    13887.431    214605.09 
   71800          359   0.49248209 0.0097612594    6516.6522    7386.4926    13903.145    214222.15 
   71900        359.5   0.50041031 0.0039851222    6468.0347     7505.404    13973.439    213840.64 
   72000          360   0.50063422 0.0070343956    6407.3179    7508.7624     13916.08    213459.86 
   72100        360.5   0.49944722 0.0012316461    6466.8394    7490.9591    13957.799    213080.65 
   72200          361   0.49535849 0.00063695947    6493.6581    7429.6342    13923.292    212702.47 
   72300        361.5   0.49765478 0.0040899988    6514.3512    7464.0753    13978.426    212325.45 
   72400          362   0.49790798 0.0063066198    6478.9785    7467.8728    13946.851    211949.53 
   72500        362.5   0.50034448 0.0040077372      6412.54    7504.4167    13916.957    211574.69 
   72600          363   0.49886763 0.0023819602    6509.2165    7482.2661    13991.483    211200.94 
   72700        363.5   0.49981331 0.0049357419    6523.4068    7496.4499    14019.857    210828.21 
   72800          364   0.50189702 0.0027695196    6505.2252    7527.7025    14032.928    210456.77 
   72900        364.5    0.4942573 0.0013319581    6451.6856    7413.1181    13864.804    210086.52 
   73000          365    0.4997676 0.0038743157    6426.7643    7495.7643    13922.529    209717.23 
   73100        365.5   0.49630857 0.0056516325    6500.1002    7443.8841    13943.984    209348.86 
   73200          366   0.50284311 0.0045048462    6477.8085    7541.8924    14019.701    208981.48 
   73300        366.5   0.49705738 0.0019622393    6495.9463    7455.1151    13951.061    208615.22 
   73400          367   0.49312909  -0.00107561    6526.3313    7396.1966    13922.528    208250.12 
   73500        367.5    0.4998317 0.0069237048    6375.9292    7496.7257    13872.655    207885.77 
   73600          368   0.49605376 0.0041018461    6501.7689    7440.0623    13941.831    207522.67 
   73700        368.5   0.50022382 0.00077592704    6487.3048     7502.607    13989.912    207160.47 
   73800          369    0.5042611 0.0042237636    6495.5708    7563.1602    14058.731     206799.4 
   73900        369.5   0.50476745 0.0059510115    6467.1751    7570.7546     14037.93    206439.51 
   74000          370   0.50436092 0.0085252371    6448.4402    7564.6573    14013.097    206080.51 
   74100        370.5   0.50524089 -0.0012779009    6474.4787    7577.8555    14052.334    205722.77 
   74200          371   0.49971926 -0.0006663918    6489.7561    7495.0393    13984.795    205365.62 
   74300        371.5   0.50093099 0.0046633618    6459.4264    7513.2135     13972.64     205009.4 
   74400          372   0.50067967 0.0082320685    6359.9942    7509.4441    13869.438    204654.03 
   74500        372.5   0.50012435 -0.00097412566    6439.5324    7501.1151    13940.648    204299.74 
   74600          373   0.49640367 0.00094735204    6421.1115    7445.3104    13866.422    203946.49 
   74700        373.5    0.4992223  0.010255678    6534.0443    7487.5857     14021.63    203594.17 
   74800          374   0.49952182 0.0059445734    6443.5291    7492.0781    13935.607    203243.07 
   74900        374.5   0.50010968 -0.00096548371    6435.7162    7500.8951    13936.611    202893.09 
   75000          375   0.49858895   0.00363805    6507.7639    7478.0863     13985.85    202543.95 
   75100        375.5   0.50275096   0.01003882    6481.4317    7540.5102    14021.942    202195.65 
   75200          376   0.50930092 0.0083291882    6497.9759    7638.7498    14136.726    201848.49 
   75300        376.5   0.50707608 0.0026126637    6531.8757    7605.3806    14137.256    201502.25 
   75400          377   0.49871631 -0.0035617255    6563.3924    7479.9966    14043.389    201156.95 
   75500        377.5   0.50438376 -0.0007841081    6418.2858    7564.9998    13983.286    200812.53 
   75600          378   0.50097883 0.0087625501    6465.8085     7513.931     13979.74    200468.77 
   75700        378.5   0.49888253   0.01267389    6568.0767    7482.4896    14050.566    200126.04 
[...]
 3171900       5009.5   0.50614992  0.052803027    6630.0421    7591.4895    14221.532    36568.815 
 3172000         5010   0.50864929  0.064681106    6585.1544    7628.9763    14214.131    36568.815 
 3172100       5010.5   0.50601731  0.067843744    6611.4596    7589.5007     14200.96    36568.815 
 3172200         5011   0.49788954  0.072127122    6614.9552    7467.5962    14082.551    36568.815 
 3172300       5011.5   0.49131104  0.068469427    6605.5508    7368.9287    13974.479    36568.815 
 3172400         5012   0.49960602  0.097969877    6563.0933    7493.3409    14056.434    36568.815 
 3172500       5012.5   0.50669964   0.09438797    6431.8963    7599.7346    14031.631    36568.815 
 3172600         5013   0.49778384  0.057126502    6574.5121    7466.0109    14040.523    36568.815 
 3172700       5013.5   0.50331763  0.076875981    6550.6506    7549.0095     14099.66    36568.815 
 3172800         5014   0.50373428  0.032014569    6548.3985    7555.2587    14103.657    36568.815 
 3172900       5014.5   0.50748193  0.076621833    6517.5967    7611.4677    14129.064    36568.815 
 3173000         5015   0.50831104   0.10969432    6595.9036    7623.9031    14219.807    36568.815 
 3173100       5015.5   0.50107698  0.076684478    6577.6164    7515.4031     14093.02    36568.815 
 3173200         5016    0.4944317   0.06348083    6653.8173    7415.7338    14069.551    36568.815 
 3173300       5016.5    0.5036403  0.060578372    6610.1918     7553.849    14164.041    36568.815 
 3173400         5017   0.49756513  0.069265035    6629.7556    7462.7306    14092.486    36568.815 
 3173500       5017.5   0.49632273  0.083026929    6554.5363    7444.0964    13998.633    36568.815 
 3173600         5018    0.4970799  0.069323211    6491.0142    7455.4529    13946.467    36568.815 
 3173700       5018.5   0.50232094  0.050718198    6506.0025    7534.0606    14040.063    36568.815 
 3173800         5019   0.50123142  0.049687189    6450.7542    7517.7195    13968.474    36568.815 
 3173900       5019.5   0.49246098  0.072740822    6596.2075     7386.176    13982.384    36568.815 
 3174000         5020   0.50015405  0.083810993    6453.1838    7501.5606    13954.744    36568.815 
 3174100       5020.5    0.4964894  0.093447026    6563.6175    7446.5963    14010.214    36568.815 
 3174200         5021   0.50266942  0.055550243    6543.3613    7539.2872    14082.649    36568.815 
 3174300       5021.5   0.50654046   0.03517369    6594.9055     7597.347    14192.253    36568.815 
 3174400         5022   0.50828109  0.059036577    6579.8259    7623.4539     14203.28    36568.815 
 3174500       5022.5   0.50676974  0.074551818    6574.7457     7600.786    14175.532    36568.815 
 3174600         5023   0.50082096   0.11278308    6549.6777    7511.5631    14061.241    36568.815 
 3174700       5023.5   0.49340074  0.099109188    6650.2608    7400.2711    14050.532    36568.815 
 3174800         5024   0.49825299  0.063952615    6565.4257    7473.0475    14038.473    36568.815 
 3174900       5024.5   0.50404441   0.11278078    6604.4448    7559.9101    14164.355    36568.815 
 3175000         5025   0.50262593  0.091781107    6505.3585     7538.635    14043.993    36568.815 
 3175100       5025.5   0.49952407  0.088981484    6528.4529    7492.1118    14020.565    36568.815 
 3175200         5026   0.50003684  0.043896516    6521.3713    7499.8026    14021.174    36568.815 
 3175300       5026.5   0.49646618   0.08185642     6497.061     7446.248    13943.309    36568.815 
 3175400         5027   0.49202495  0.084539048    6493.5303    7379.6362    13873.167    36568.815 
 3175500       5027.5   0.50003581  0.081974652    6518.3882    7499.7871    14018.175    36568.815 
 3175600         5028   0.49914532  0.058948721    6502.1029    7486.4311    13988.534    36568.815 
 3175700       5028.5   0.50008528  0.061300139    6578.7293    7500.5291    14079.258    36568.815 
 3175800         5029   0.49824996  0.091434474    6615.1641     7473.002    14088.166    36568.815 
 3175900       5029.5   0.49726228  0.090993412    6600.3407    7458.1883    14058.529    36568.815 
 3176000         5030   0.49895747  0.084525529     6573.957    7483.6136    14057.571    36568.815 
 3176100       5030.5   0.50340617  0.065191636     6453.675    7550.3374    14004.012    36568.815 
 3176200         5031     0.500528  0.061987699    6549.2213    7507.1692     14056.39    36568.815 
 3176300       5031.5   0.50508237  0.069560376    6489.0055    7575.4779    14064.483    36568.815 
 3176400         5032   0.49745737  0.067227488    6603.8954    7461.1143     14065.01    36568.815 
 3176500       5032.5   0.50694856  0.090432718    6508.1133     7603.468    14111.581    36568.815 
 3176600         5033   0.50191999  0.086608926    6607.2939     7528.047    14135.341    36568.815 
 3176700       5033.5   0.49738149  0.070175483    6554.3519    7459.9763    14014.328    36568.815 
 3176800         5034   0.50695182   0.09882069    6528.4413    7603.5169    14131.958    36568.815 
 3176900       5034.5    0.4989307  0.064043295    6683.6662    7483.2121    14166.878    36568.815 
 3177000         5035   0.50700703  0.091328497    6662.7884    7604.3449    14267.133    36568.815 
 3177100       5035.5   0.49824637  0.092019373    6637.9647    7472.9482    14110.913    36568.815 
 3177200         5036   0.49816805  0.072616337    6611.1339    7471.7734    14082.907    36568.815 
 3177300       5036.5   0.49496623  0.050723262    6674.3409    7423.7511    14098.092    36568.815 
 3177400         5037   0.50061437  0.060686374    6689.7862    7508.4646    14198.251    36568.815 
 3177500       5037.5    0.5044163  0.097993001    6612.1237    7565.4879    14177.612    36568.815 
 3177600         5038   0.50282322  0.087677377    6581.0452     7541.594    14122.639    36568.815 
 3177700       5038.5   0.50032906  0.064734915    6591.6031    7504.1853    14095.788    36568.815 
 3177800         5039   0.50489528  0.059452934    6634.9766    7572.6718    14207.648    36568.815 
 3177900       5039.5   0.50260353  0.098143198    6468.8274     7538.299    14007.126    36568.815 
 3178000         5040   0.49921446   0.12423123    6539.0017    7487.4681     14026.47    36568.815 
 3178100       5040.5   0.49764771  0.060340876     6562.811    7463.9692     14026.78    36568.815 
 3178200         5041   0.49859034    0.0620312    6575.9445    7478.1071    14054.052    36568.815 
 3178300       5041.5   0.50113222  0.050878318    6641.8973    7516.2316    14158.129    36568.815 
 3178400         5042   0.49914299  0.068506188     6552.606    7486.3962    14039.002    36568.815 
 3178500       5042.5   0.49863856  0.086575276    6575.1309    7478.8305    14053.961    36568.815 
 3178600         5043      0.49879  0.091163605    6606.9852    7481.1018    14088.087    36568.815 
 3178700       5043.5   0.49900593  0.088835796    6575.4161    7484.3404    14059.757    36568.815 
 3178800         5044    0.5004019  0.047893474    6581.3309    7505.2778    14086.609    36568.815 
 3178900       5044.5   0.50299869  0.068866212    6532.8718    7544.2258    14077.098    36568.815 
 3179000         5045   0.49460376  0.081460989    6614.3881    7418.3145    14032.703    36568.815 
 3179100       5045.5   0.50527784  0.096687855    6512.5785    7578.4097    14090.988    36568.815 
 3179200         5046      0.49407  0.075484333    6621.3615    7410.3089     14031.67    36568.815 
 3179300       5046.5   0.50292958  0.066238483    6531.7904    7543.1892     14074.98    36568.815 
 3179400         5047   0.49867427  0.055451897     6583.138     7479.366    14062.504    36568.815 
 3179500       5047.5   0.50140136  0.062622221    6538.5938    7520.2683    14058.862    36568.815 
 3179600         5048   0.50456288   0.11671077    6526.5968    7567.6864    14094.283    36568.815 
 3179700       5048.5   0.50383004  0.092117638    6560.6371    7556.6948    14117.332    36568.815 
 3179800         5049   0.50077841  0.063046434    6658.6519     7510.925    14169.577    36568.815 
 3179900       5049.5   0.49832176  0.084044951    6580.8356     7474.079    14054.915    36568.815 
 3180000         5050   0.49659657  0.086669819    6521.6961    7448.2036      13969.9    36568.815 
 3180100       5050.5   0.50146857  0.058314838    6551.1196    7521.2763    14072.396    36568.815 
 3180200         5051   0.50173809  0.078796678    6546.3415    7525.3187     14071.66    36568.815 
 3180300       5051.5   0.50303016  0.075089739     6505.639    7544.6978    14050.337    36568.815 
 3180400         5052   0.50095318  0.051747914    6503.8608    7513.5463    14017.407    36568.815 
 3180500       5052.5   0.50250163  0.071938575    6483.6746    7536.7706    14020.445    36568.815 
 3180600         5053   0.49286959  0.088201411    6532.9186    7392.3045    13925.223    36568.815 
 3180700       5053.5   0.50321006  0.072435339    6429.1472     7547.396    13976.543    36568.815 
 3180800         5054   0.50140865  0.066728703    6450.7213    7520.3777    13971.099    36568.815 
 3180900       5054.5    0.4977385  0.068569506    6522.0387    7465.3309     13987.37    36568.815 
 3181000         5055   0.49550754  0.081282266    6532.4861    7431.8698    13964.356    36568.815 
 3181100       5055.5   0.50066611   0.06653977    6615.1247    7509.2406    14124.365    36568.815 
 3181200         5056   0.50462435  0.079677101     6602.714    7568.6083    14171.322    36568.815 
 3181300       5056.5    0.5041026  0.069541846    6612.0899    7560.7828    14172.873    36568.815 
 3181400         5057   0.50480956   0.04398699    6662.2954    7571.3861    14233.682    36568.815 
 3181500       5057.5   0.49905451  0.089881831    6592.7053     7485.069    14077.774    36568.815 
 3181600         5058   0.49769885  0.063119003    6512.3917    7464.7362    13977.128    36568.815 
 3181700       5058.5   0.50271231  0.068417455    6528.3243    7539.9306    14068.255    36568.815 
 3181800         5059   0.50122163  0.042084587    6599.8175    7517.5726     14117.39    36568.815 
 3181900       5059.5   0.50770438  0.089734219    6636.9022    7614.8041    14251.706    36568.815 
 3182000         5060   0.50682839  0.088292797    6517.5021    7601.6657    14119.168    36568.815 
 3182100       5060.5   0.49870047   0.10399426    6506.8284     7479.759    13986.587    36568.815 
 3182200         5061   0.50158322  0.078666968    6565.0824    7522.9959    14088.078    36568.815 
 3182300       5061.5   0.49971835  0.064228912     6549.878    7495.0256    14044.904    36568.815 
 3182400         5062   0.49709176  0.037989362    6479.5595    7455.6308     13935.19    36568.815 
 3182500       5062.5   0.50368202  0.088868194    6499.0873    7554.4748    14053.562    36568.815 
 3182600         5063   0.50314088   0.10494531    6558.6843    7546.3585    14105.043    36568.815 
 3182700       5063.5   0.50359877   0.10113243    6610.0091    7553.2262    14163.235    36568.815 
 3182800         5064   0.50167533   0.10521457     6617.478    7524.3775    14141.856    36568.815 
 3182900       5064.5   0.50541171  0.031279044    6547.1708    7580.4175    14127.588    36568.815 
 3183000         5065    0.4986264   0.05535503    6569.5901     7478.648    14048.238    36568.815 
 3183100       5065.5   0.49626359  0.084853672    6545.3468    7443.2094    13988.556    36568.815 
 3183200         5066   0.49779858  0.093114277    6535.3809     7466.232    14001.613    36568.815 
 3183300       5066.5   0.49822448  0.051824032    6566.6523    7472.6199    14039.272    36568.815 
 3183400         5067   0.49111623  0.046381586    6620.9547    7366.0067    13986.961    36568.815 
 3183500       5067.5   0.49187851  0.079658202    6624.7604    7377.4398      14002.2    36568.815 
 3183600         5068   0.49143436  0.083310312    6600.3065    7370.7782    13971.085    36568.815 
 3183700       5068.5   0.49727129  0.080249209    6483.8713    7458.3234    13942.195    36568.815 
 3183800         5069   0.49741092  0.047981442     6478.044    7460.4176    13938.462    36568.815 
 3183900       5069.5   0.49515088  0.031422355    6518.3819    7426.5205    13944.902    36568.815 
 3184000         5070   0.50042932  0.061930842    6467.6478    7505.6892    13973.337    36568.815 
 3184100       5070.5   0.49795113  0.097120262    6630.3559      7468.52    14098.876    36568.815 
 3184200         5071   0.49942733   0.10073971     6585.329    7490.6608     14075.99    36568.815 
 3184300       5071.5   0.50041152  0.034943791    6544.2712    7505.4222    14049.693    36568.815 
 3184400         5072   0.50203602  0.025047071    6557.1431    7529.7873     14086.93    36568.815 
 3184500       5072.5   0.49676056   0.07114136    6542.1919    7450.6632    13992.855    36568.815 
 3184600         5073   0.49940403   0.11203794    6476.5373    7490.3114    13966.849    36568.815 
 3184700       5073.5   0.49579332   0.10773747    6476.3867    7436.1561    13912.543    36568.815 
 3184800         5074   0.49807592  0.060729849    6446.2835    7470.3917    13916.675    36568.815 
 3184900       5074.5   0.49567208  0.062728547    6571.7427    7434.3376     14006.08    36568.815 
 3185000         5075   0.50151148  0.070729969    6482.3861      7521.92    14004.306    36568.815 
 3185100       5075.5   0.49816679  0.081946591     6672.361    7471.7547    14144.116    36568.815 
 3185200         5076   0.50522394  0.088477657    6610.0511    7577.6013    14187.652    36568.815 
 3185300       5076.5   0.50562704  0.096153666    6604.3017    7583.6471    14187.949    36568.815 
 3185400         5077   0.50096116   0.07238941    6575.7134    7513.6659    14089.379    36568.815 
 3185500       5077.5   0.49831026  0.039751246    6557.2704    7473.9064    14031.177    36568.815 
 3185600         5078   0.49645471  0.060594895    6434.9875     7446.076    13881.064    36568.815 
 3185700       5078.5   0.49207007  0.091804463    6584.1557     7380.313    13964.469    36568.815 
 3185800         5079   0.49787794   0.06728703    6554.9536    7467.4222    14022.376    36568.815 
 3185900       5079.5   0.48746213  0.066666506    6544.7075    7311.2008    13855.908    36568.815 
 3186000         5080   0.49978103  0.068341474    6398.1204    7495.9658    13894.086    36568.815 
 3186100       5080.5   0.49363363  0.098561966     6515.572    7403.7639    13919.336    36568.815 
 3186200         5081   0.49323129   0.08723207    6555.4715    7397.7295    13953.201    36568.815 
 3186300       5081.5   0.49540524  0.067101342    6550.3221    7430.3355    13980.658    36568.815 
 3186400         5082    0.5004024  0.041620257     6547.809    7505.2855    14053.094    36568.815 
 3186500       5082.5    0.5035618  0.054163249    6627.9697    7552.6717    14180.641    36568.815 
 3186600         5083    0.5012039   0.12079225    6583.9317    7517.3067    14101.238    36568.815 
 3186700       5083.5   0.50514818  0.069141559    6507.4568    7576.4649    14083.922    36568.815 
 3186800         5084   0.49939439  0.048602941    6584.8464    7490.1668    14075.013    36568.815 
 3186900       5084.5   0.50172834  0.069386335    6615.0555    7525.1725    14140.228    36568.815 
 3187000         5085   0.50013709   0.10224238    6547.8259    7501.3062    14049.132    36568.815 
 3187100       5085.5   0.50280093  0.077326516    6550.6403    7541.2597      14091.9    36568.815 
 3187200         5086    0.5072211  0.093298466    6533.9444    7607.5557      14141.5    36568.815 
 3187300       5086.5    0.5026659  0.078242665    6607.2669    7539.2345    14146.501    36568.815 
 3187400         5087   0.51502499   0.07390946    6556.8272    7724.6023     14281.43    36568.815 
 3187500       5087.5   0.50773195  0.090055139    6630.6558    7615.2177    14245.873    36568.815 
 3187600         5088   0.50491653   0.10403046    6586.5072    7572.9906    14159.498    36568.815 
 3187700       5088.5   0.50697925  0.082070416    6568.4552    7603.9282    14172.383    36568.815 
 3187800         5089   0.50331403  0.075204802    6576.8597    7548.9555    14125.815    36568.815 
 3187900       5089.5   0.50082988  0.071416751    6586.5906     7511.697    14098.288    36568.815 
 3188000         5090   0.50826588   0.06553982    6542.6528    7623.2258    14165.879    36568.815 
 3188100       5090.5   0.50099183  0.051827735    6601.9593    7514.1259    14116.085    36568.815 
 3188200         5091   0.50106945  0.082937207    6577.8627    7515.2902    14093.153    36568.815 
 3188300       5091.5   0.49364302   0.09453246    6694.2761    7403.9048    14098.181    36568.815 
 3188400         5092   0.50109145  0.088324264     6620.842    7515.6202    14136.462    36568.815 
 3188500       5092.5   0.50688831  0.039875778    6527.3119    7602.5643    14129.876    36568.815 
 3188600         5093   0.49793669  0.078608748    6548.8965    7468.3035      14017.2    36568.815 
 3188700       5093.5   0.49361098  0.091299953    6560.2261    7403.4243     13963.65    36568.815 
 3188800         5094   0.49458228  0.077396134     6516.983    7417.9923    13934.975    36568.815 
 3188900       5094.5   0.49540716  0.066235686    6475.1634    7430.3643    13905.528    36568.815 
 3189000         5095   0.50201018  0.074890566    6417.4693    7529.3997    13946.869    36568.815 
 3189100       5095.5    0.4985177  0.082882855    6597.4073    7477.0178    14074.425    36568.815 
 3189200         5096   0.50276331   0.10314221    6495.2185    7540.6954    14035.914    36568.815 
 3189300       5096.5   0.49786398  0.077381276    6444.1755     7467.213    13911.388    36568.815 
 3189400         5097   0.48958239  0.089975394     6486.533    7343.0015    13829.535    36568.815 
 3189500       5097.5   0.49841101  0.040429872    6459.7766    7475.4175    13935.194    36568.815 
 3189600         5098   0.49928038  0.059022316    6485.5503    7488.4568    13974.007    36568.815 
 3189700       5098.5   0.50226852  0.082915384    6484.8528    7533.2744    14018.127    36568.815 
 3189800         5099   0.50052346   0.12189195    6599.2135    7507.1012    14106.315    36568.815 
 3189900       5099.5   0.49621334  0.059271815    6675.5756    7442.4557    14118.031    36568.815 
 3190000         5100   0.50024014  0.042652495    6656.3858    7502.8517    14159.237    36568.815 
Loop time of 1747.13 on 1 procs for 1000000 steps with 10000 atoms

Performance: 247263.328 tau/day, 572.369 timesteps/s
98.2% CPU use with 1 MPI tasks x 1 OpenMP threads

MPI task timing breakdown:
Section |  min time  |  avg time  |  max time  |%varavg| %total
---------------------------------------------------------------
Pair    | 133.92     | 133.92     | 133.92     |   0.0 |  7.67
Bond    | 569.12     | 569.12     | 569.12     |   0.0 | 32.57
Neigh   | 311.42     | 311.42     | 311.42     |   0.0 | 17.82
Comm    | 79.686     | 79.686     | 79.686     |   0.0 |  4.56
Output  | 28.835     | 28.835     | 28.835     |   0.0 |  1.65
Modify  | 598.87     | 598.87     | 598.87     |   0.0 | 34.28
Other   |            | 25.27      |            |       |  1.45

Nlocal:    10000 ave 10000 max 10000 min
Histogram: 1 0 0 0 0 0 0 0 0 0
Nghost:    4328 ave 4328 max 4328 min
Histogram: 1 0 0 0 0 0 0 0 0 0
Neighs:    6136 ave 6136 max 6136 min
Histogram: 1 0 0 0 0 0 0 0 0 0

Total # of neighbors = 6136
Ave neighs/atom = 0.6136
Ave special neighs/atom = 4.8
Neighbor list builds = 88114
Dangerous builds = 14222
write_restart restart.time*

#This section  of codes allows looping over the list of T values
clear
OMP_NUM_THREADS environment is not set. Defaulting to 1 thread. (../comm.cpp:94)
  using 1 OpenMP thread(s) per MPI task
next mix_steps
jump in.run_loop loop  #jumps back to loop label

shell py phase_plot.py #runs phase analysis
shell py director_plot.py #runs phase analysis
Total wall time: 1:35:43
