LAMMPS (3 Mar 2020)
OMP_NUM_THREADS environment is not set. Defaulting to 1 thread. (../comm.cpp:94)
  using 1 OpenMP thread(s) per MPI task
#SETUP
# Runs on the first loop only
shell del *.dump     # delete all dump files before first run CAREFUL WITH THIS
shell del restart.time*     # delete all current restart files before first run
shell lmp_serial -in in.run_setup     # first run of file, generate first restart file

#VARIABLES
variable N         equal  1000  #MUST BE SAME AS SETUP FILE FOR PHASEPLOT
variable T         equal  0.5
variable t_step    equal  0.005 #originally 0.005
variable mix_steps index  50000 50000 50000
variable mix_tau   equal  ${t_step}*${mix_steps}
variable mix_tau   equal  0.005*${mix_steps}
variable mix_tau   equal  0.005*50000
variable run_steps equal  100000 # steps to run simulation in order to reach steady state
variable run_tau   equal  ${t_step}*${run_steps} # this is the time in LJ units
variable run_tau   equal  0.005*${run_steps} 
variable run_tau   equal  0.005*100000 

#LOOP START
label loop  #start loop from here
read_restart restart.time*
  restoring atom style molecular from restart
  orthogonal box = (-50 -150 -50) to (50 150 50)
  1 by 1 by 1 MPI processor grid
  restoring pair style lj/cut from restart
  restoring bond style harmonic from restart
  restoring angle style harmonic from restart
  10000 atoms
  9000 bonds
  8000 angles
  2 = max # of 1-2 neighbors
  2 = max # of 1-3 neighbors
  4 = max # of 1-4 neighbors
  6 = max # of special neighbors
  special bonds CPU = 0.00900984 secs
  read_restart CPU = 0.033891 secs
# this reads in latest restart file, * is wildcard for timestep


# THERMAL
timestep ${t_step}
timestep 0.005
thermo   100
thermo_style custom step time temp press pe ke etotal vol
thermo_modify norm no


# DUMP OUTPUT
dump  1  all custom 100 output_T_${T}__time_*.dump id mol type x y z vx vy vz
dump  1  all custom 100 output_T_0.5__time_*.dump id mol type x y z vx vy vz
# dumps all positions etc every N  steps
#dump_modify 1 sort id

# FIX
fix 2 all nph iso ${T} ${T} 100   #changed from T = 0.5 to match variable T
fix 2 all nph iso 0.5 ${T} 100   
fix 2 all nph iso 0.5 0.5 100   
fix 3 all langevin ${T} ${T} 1 123456 #as above
fix 3 all langevin 0.5 ${T} 1 123456 
fix 3 all langevin 0.5 0.5 1 123456 
run ${mix_steps}
run 50000
Neighbor list info ...
  update every 1 steps, delay 10 steps, check yes
  max neighbors/atom: 2000, page size: 100000
  master list distance cutoff = 1.42
  ghost atom cutoff = 1.9
  binsize = 0.71, bins = 141 423 141
  1 neighbor lists, perpetual/occasional/extra = 1 0 0
  (1) pair lj/cut, perpetual
      attributes: half, newton on
      pair build: half/bin/newton
      stencil: half/bin/3d/newton
      bin: standard
Per MPI rank memory allocation (min/avg/max) = 44.81 | 44.81 | 44.81 Mbytes
Step Time Temp Press PotEng KinEng TotEng Volume 
       0            0            0 -6.4108052e-17 1.6320278e-10            0 1.6320278e-10 3000000 
     100          0.5   0.21403985  8.74446e-05    2571.4289    3210.2767    5781.7056    2983351.5 
     200            1   0.33539115 0.00025822974    4110.6235    5030.3642    9140.9877      2941230 
     300          1.5    0.4048504 0.00045109753    5068.6697    6072.1488    11140.819    2899176.3 
     400            2    0.4406289 0.00021314079    5638.7773    6608.7726     12247.55    2860886.7 
     500          2.5   0.46678776 -4.5943438e-05    5961.6109    7001.1163    12962.727    2822294.2 
     600            3    0.4812028 4.636481e-05    6119.2294    7217.3202     13336.55    2786814.7 
     700          3.5   0.48842567 0.00018378716    6269.5668    7325.6524    13595.219      2754647 
     800            4   0.49405204 0.00038645101    6338.2941    7410.0396    13748.334    2724241.6 
     900          4.5   0.49228365 0.00037537642    6443.8626    7383.5164    13827.379    2694947.7 
    1000            5   0.49932566 0.0003152242    6313.2708    7489.1359    13802.407    2666602.5 
    1100          5.5   0.49787443 0.0003018875    6448.7539    7467.3697    13916.124    2639100.7 
    1200            6   0.50191286 0.00020125355     6339.675      7527.94    13867.615    2612351.9 
    1300          6.5   0.50058828 -0.00012096602    6491.6496    7508.0733    13999.723    2586288.3 
    1400            7   0.50199231 0.00025096116    6482.9595    7529.1316    14012.091    2560854.7 
    1500          7.5   0.50600611 0.00028850151     6450.363    7589.3327    14039.696    2536011.2 
    1600            8    0.5024045 0.00011314825    6571.9959    7535.3139     14107.31    2511721.8 
    1700          8.5   0.50100841 0.00019550045    6486.3652    7514.3747     14000.74    2487950.8 
    1800            9   0.49643138 -2.3533096e-05    6434.4579    7445.7261    13880.184    2464674.2 
    1900          9.5   0.50087847 0.00043603106    6386.8279    7512.4258    13899.254    2441869.5 
    2000           10   0.49435234 0.00044351738    6456.9523    7414.5435    13871.496    2419514.6 
    2100         10.5   0.49943081 0.00019665862    6589.4303     7490.713    14080.143    2397587.7 
    2200           11   0.51094301 -2.1702349e-05    6521.8668    7663.3787    14185.246    2376071.8 
    2300         11.5   0.50325175 -1.4536272e-05    6487.3824    7548.0214    14035.404    2354948.3 
    2400           12    0.5021149 0.00036136024    6448.9214    7530.9703    13979.892      2334206 
    2500         12.5   0.50303242 0.00027165013    6517.8877    7544.7318    14062.619    2313831.3 
    2600           13   0.49887444 -8.392995e-05     6470.127    7482.3682    13952.495    2293809.1 
    2700         13.5   0.50173567 -0.00011958786     6424.619    7525.2824    13949.901    2274127.3 
    2800           14   0.50208659 -0.0001641746    6439.7027    7530.5457    13970.248    2254775.8 
    2900         14.5   0.50071322 3.1620798e-05    6468.4297    7509.9472    13978.377    2235744.4 
    3000           15   0.49446189 0.00079739524    6473.6079    7416.1866    13889.795    2217021.7 
    3100         15.5   0.49433206 0.00068192196    6421.4966    7414.2394    13835.736    2198600.8 
    3200           16   0.50236622  0.000414946    6354.1092    7534.7397    13888.849    2180470.7 
    3300         16.5    0.5016754 -0.00063036353    6378.4303    7524.3785    13902.809      2162626 
    3400           17   0.50480906 0.00051793535    6359.4898    7571.3787    13930.869    2145054.4 
    3500         17.5   0.49393506 0.00042012457    6512.5751     7408.285     13920.86    2127751.4 
    3600           18   0.49966518 3.7376615e-05    6374.2241    7494.2282    13868.452    2110708.7 
    3700         18.5   0.50066803 -0.00012278164    6413.1596    7509.2695    13922.429    2093921.3 
    3800           19   0.49054378 0.00080654722    6521.8253    7357.4208    13879.246    2077380.4 
    3900         19.5   0.50336944 0.0011610969    6333.9376    7549.7865    13883.724    2061081.5 
    4000           20   0.49346629 -0.00036612413    6440.2108    7401.2541    13841.465    2045019.8 
    4100         20.5   0.49485936 -0.00032077823    6358.1916    7422.1481     13780.34    2029185.6 
    4200           21   0.49466823 0.00061860893    6434.0996    7419.2814    13853.381    2013572.9 
    4300         21.5   0.49493146 0.00062514179    6416.9172    7423.2295    13840.147    1998180.4 
    4400           22   0.50012214 4.6796576e-05    6397.9532    7501.0819    13899.035    1983003.1 
    4500         22.5   0.49558837 0.0005777604    6419.9869    7433.0821    13853.069    1968032.5 
    4600           23   0.50053909 2.4109978e-05    6527.2968    7507.3355    14034.632    1953266.6 
    4700         23.5   0.49932749 0.00031205592    6482.3484    7489.1634    13971.512    1938699.8 
    4800           24   0.49726789 0.00019473619    6444.2349    7458.2725    13902.507    1924329.2 
    4900         24.5   0.49911667 -0.0002318657    6422.6038    7486.0013    13908.605    1910148.3 
    5000           25   0.50119295 -3.0681984e-06    6469.1529    7517.1425    13986.295    1896155.2 
    5100         25.5   0.50343603 0.00071153489    6381.1021    7550.7854    13931.887    1882344.2 
    5200           26   0.49428944 0.00074748456    6485.5684    7413.6002    13899.169    1868710.8 
    5300         26.5   0.49990998 0.00019331427    6395.5622    7497.8999    13893.462    1855253.3 
    5400           27   0.49674503 0.00025986468    6481.5795    7450.4304     13932.01    1841967.7 
    5500         27.5     0.510305 -5.5455889e-05     6385.648    7653.8096    14039.458    1828850.8 
    5600           28   0.50013591 0.00027844129    6607.9523    7501.2884    14109.241    1815898.9 
    5700         28.5   0.50540376 0.0010429979     6477.245    7580.2983    14057.543      1803108 
    5800           29    0.5045268 0.00060557708    6456.9124    7567.1452    14024.058      1790477 
    5900         29.5   0.49965177 -0.00065755194    6442.2818    7494.0271    13936.309    1778001.6 
    6000           30   0.50664703 0.00026504892    6451.6159    7598.9455    14050.561    1765676.5 
    6100         30.5   0.49812302 0.00099841037    6446.4917    7471.0982     13917.59    1753502.1 
    6200           31   0.49971866 0.00034464356    6433.5711    7495.0303    13928.601    1741476.2 
    6300         31.5   0.49438298 -7.9588055e-05     6482.086    7415.0031    13897.089    1729592.8 
    6400           32   0.49643066 0.00022440543     6463.008    7445.7153    13908.723    1717848.3 
    6500         32.5   0.50196804 0.00040594633    6374.9637    7528.7676    13903.731    1706243.5 
    6600           33   0.49994434 -4.7347993e-05    6481.3083    7498.4152    13979.723    1694775.5 
    6700         33.5   0.50161909 -3.4459038e-05    6413.3975    7523.5339    13936.931    1683439.4 
    6800           34   0.49661543 0.00026121482    6479.4281    7448.4865    13927.915    1672236.2 
    6900         34.5   0.49687277 0.00015276545    6484.5978    7452.3463    13936.944    1661162.2 
    7000           35   0.49743015 0.00064387278    6428.1904    7460.7061    13888.897    1650213.5 
    7100         35.5   0.49720087 0.0012314391     6273.246    7457.2673    13730.513    1639391.1 
    7200           36   0.50320605 0.00039851541    6313.0705     7547.336    13860.407    1628692.4 
    7300         36.5   0.50136697 -0.00052025813    6445.0951    7519.7525    13964.848    1618114.7 
    7400           37   0.50594697 -0.00018267497    6444.1184    7588.4456    14032.564    1607654.8 
    7500         37.5   0.50128749 0.00029478497     6514.624    7518.5604    14033.184    1597309.3 
    7600           38   0.49892566 0.0011458621    6522.9037    7483.1364     14006.04    1587077.6 
    7700         38.5    0.5074293 0.00050318225    6365.5233    7610.6784    13976.202    1576960.8 
    7800           39   0.49865293 0.00030842794    6338.2461    7479.0459    13817.292    1566953.7 
    7900         39.5   0.49949562 -0.00028361471    6423.6248    7491.6851     13915.31    1557055.7 
    8000           40   0.50208292 0.00041411075    6376.6817    7530.4906    13907.172      1547265 
    8100         40.5    0.4990234 0.00042269435    6386.3539    7484.6025    13870.956    1537579.1 
    8200           41   0.50329278 0.00024550618    6361.9562    7548.6367    13910.593    1527995.9 
    8300         41.5   0.49729831 0.00048142212    6421.5462    7458.7287    13880.275      1518515 
    8400           42   0.49398729 0.00055454911    6439.4519    7409.0683     13848.52    1509136.1 
    8500         42.5   0.49546497 0.0008683689    6345.3042    7431.2314    13776.536    1499854.3 
    8600           43   0.49745691 0.00037874776    6442.3059    7461.1075    13903.413    1490669.5 
    8700         43.5   0.49738115 -0.00013369983    6477.5415    7459.9712    13937.513      1481581 
    8800           44   0.49913837 -4.6647591e-05    6426.8644    7486.3269    13913.191    1472587.5 
    8900         44.5    0.4982459 0.00060093376    6422.3718    7472.9412    13895.313    1463686.3 
    9000           45   0.50047845 0.0010624388    6402.7345     7506.426     13909.16    1454874.9 
    9100         45.5   0.50710621 0.00051590547    6359.6844    7605.8326    13965.517    1446153.3 
    9200           46   0.50687596 -0.0004052502    6432.8173    7602.3792    14035.196    1437523.5 
    9300         46.5   0.50106956 0.00035308897     6510.173    7515.2919    14025.465    1428979.3 
    9400           47   0.49919043 0.0006524383      6407.94    7487.1076    13895.048    1420519.9 
    9500         47.5    0.4958685 0.00030996168    6447.8034    7437.2836    13885.087    1412144.7 
    9600           48   0.50382689 -0.00039655381    6411.5737    7556.6476    13968.221    1403853.9 
    9700         48.5    0.5022677 0.00046432046    6437.9115     7533.262    13971.174    1395645.8 
    9800           49   0.49779638 0.00093321534    6484.5513     7466.199     13950.75    1387518.5 
    9900         49.5   0.50057766 0.00050063574    6486.0113     7507.914    13993.925    1379471.4 
   10000           50   0.50599091 -4.3755826e-05    6454.2806    7589.1047    14043.385    1371504.5 
   10100         50.5   0.50183647 0.00015931689    6465.6845    7526.7943    13992.479    1363613.9 
   10200           51   0.50006033 0.00055368377    6501.0406    7500.1549    14001.196    1355798.2 
   10300         51.5   0.49942389 0.00032543604    6421.1203    7490.6093     13911.73    1348060.6 
   10400           52   0.48820218 0.0006579617    6511.3349    7322.3003    13833.635    1340397.7 
   10500         52.5   0.48877537 0.0012064088    6553.9296    7330.8974    13884.827    1332806.7 
   10600           53   0.49680831 0.0006540109    6447.3744    7451.3794    13898.754    1325287.7 
   10700         53.5   0.50700831 3.6304204e-05    6450.9394    7604.3642    14055.304    1317840.3 
   10800           54   0.50370167 -0.00035339511    6459.5522    7554.7695    14014.322    1310463.9 
   10900         54.5   0.50300111 0.00036077655    6453.1308    7544.2622    13997.393    1303156.1 
   11000           55   0.50221716 0.00070429838    6470.6904     7532.504    14003.194    1295917.1 
   11100         55.5   0.50626977 0.00098476115    6348.4912    7593.2872    13941.778    1288744.3 
   11200           56   0.49654158 0.00037812774    6479.8703    7447.3789    13927.249    1281637.3 
   11300         56.5   0.49836861 -0.00019648843    6462.3114    7474.7816    13937.093    1274595.8 
   11400           57   0.50269286 0.00019650311    6410.3803    7539.6389    13950.019    1267618.9 
   11500         57.5    0.4979498 0.0014215043    6392.5262    7468.5001    13861.026    1260706.1 
   11600           58   0.49352245 0.00023491789     6467.312    7402.0964    13869.408    1253860.1 
   11700         58.5    0.4998944 0.00052873193    6486.2055    7497.6662    13983.872    1247074.9 
   11800           59   0.50012158 1.706766e-05    6497.1637    7501.0735    13998.237    1240350.8 
   11900         59.5   0.49846652 -8.1562179e-06    6460.1954      7476.25    13936.445      1233688 
   12000           60   0.50119829 0.00073866734    6497.6004    7517.2225    14014.823    1227084.2 
   12100         60.5   0.49874478 0.00093191159    6452.4863    7480.4236     13932.91    1220539.5 
   12200           61   0.50076941 0.0016280579    6459.0585      7510.79    13969.848    1214052.6 
   12300         61.5   0.50457809 0.00011734761    6451.1381    7567.9144    14019.052    1207624.4 
   12400           62   0.50288015 0.00039863909     6453.179    7542.4479    13995.627    1201252.1 
   12500         62.5   0.50638376 0.00050500457    6452.0407    7594.9969    14047.038    1194935.7 
   12600           63   0.49996934 -0.00056416578    6457.0755    7498.7902    13955.866    1188674.7 
   12700         63.5   0.50323535 0.00021439085    6414.6216    7547.7754    13962.397    1182468.4 
   12800           64   0.50785157 0.00085658731    6487.6302    7617.0117    14104.642    1176316.1 
   12900         64.5   0.50103218 0.00031062741    6463.4671    7514.7312    13978.198    1170216.7 
   13000           65   0.49691495 0.00061830533    6462.1402    7452.9788    13915.119    1164170.5 
   13100         65.5   0.50413287 0.00026889803    6441.4929    7561.2369     14002.73    1158176.5 
   13200           66   0.50216363 0.00026233041    6514.9719    7531.7012    14046.673    1152233.4 
   13300         66.5   0.50186543 0.0004727609    6498.4999    7527.2286    14025.729    1146340.4 
   13400           67   0.49962396 -0.00012985177    6433.3368      7493.61    13926.947    1140498.2 
   13500         67.5   0.49940446 -9.5833079e-05     6383.794    7490.3178    13874.112    1134705.1 
   13600           68   0.49805897 0.00093095892    6449.2955    7470.1375    13919.433    1128960.8 
   13700         68.5   0.49878838 0.00031022911    6426.5296    7481.0775    13907.607    1123266.1 
   13800           69   0.49593923 0.00040658384    6484.5699    7438.3445    13922.914    1117617.1 
   13900         69.5   0.49787896 -0.00015535224    6525.0549    7467.4375    13992.492    1112015.6 
   14000           70   0.50366512 2.1550031e-05    6539.7404    7554.2214    14093.962    1106461.5 
   14100         70.5   0.50448787 0.0013986155    6487.1786    7566.5613     14053.74    1100952.1 
   14200           71   0.50447035 0.0008807344     6459.384    7566.2985    14025.683    1095489.4 
   14300         71.5   0.50347353 -0.00012414456     6484.909    7551.3478    14036.257      1090072 
   14400           72   0.50026505 0.00012485074    6459.7038    7503.2254    13962.929    1084698.7 
   14500         72.5   0.50498964 0.0010317577     6455.515    7574.0872    14029.602      1079368 
   14600           73   0.50573588 0.0012230524    6415.2726    7585.2797    14000.552    1074081.5 
   14700         73.5   0.49798699  0.000277203    6500.7348    7469.0578    13969.793    1068838.3 
   14800           74   0.50339234 0.00076168442    6504.4216      7550.13    14054.552    1063637.1 
   14900         74.5   0.50303883 -5.9403404e-05    6536.8953    7544.8279    14081.723    1058478.5 
   15000           75   0.50566006 0.0014572699    6528.2823    7584.1425    14112.425    1053360.3 
   15100         75.5   0.50206271 0.00082002963    6575.8536    7530.1876    14106.041    1048284.9 
   15200           76    0.5028065 0.00021686391    6474.9204    7541.3433    14016.264    1043249.3 
   15300         76.5   0.50469418 7.6803823e-05    6533.2473    7569.6557    14102.903    1038253.5 
   15400           77   0.49929986 0.0010902912    6439.6145     7488.749    13928.363    1033296.5 
   15500         77.5   0.50601771 0.0010015885    6429.7095    7589.5066    14019.216    1028378.2 
   15600           78   0.50091926 -0.00042061445    6501.7274    7513.0375    14014.765      1023499 
   15700         78.5   0.50098905 -0.00027439611    6484.2484    7514.0843    13998.333      1018659 
   15800           79   0.50177211 0.0016229683    6587.5119     7525.829    14113.341    1013856.4 
   15900         79.5   0.49882796 0.00058022588    6379.0169    7481.6712    13860.688    1009091.7 
   16000           80   0.50349884 6.6439397e-05    6552.1326    7551.7274     14103.86    1004363.3 
   16100         80.5   0.50796552 0.00092789458    6476.0638    7618.7209    14094.785    999670.99 
   16200           81   0.50418675 7.4894759e-05     6554.669     7562.045    14116.714    995016.16 
   16300         81.5   0.50040474 0.00056040746    6556.6999    7505.3205     14062.02    990395.28 
   16400           82   0.49618641 -9.5615942e-05    6521.1066    7442.0519    13963.158     985810.4 
   16500         82.5   0.50685646 0.0001865823    6395.9077    7602.0865    13997.994    981260.74 
   16600           83   0.50223984 -8.970249e-05    6450.2352    7532.8443     13983.08    976745.44 
   16700         83.5   0.49935144 0.0017813361    6443.0626    7489.5225    13932.585    972264.29 
   16800           84   0.50133352 0.00090570072    6408.3623    7519.2508    13927.613    967818.36 
   16900         84.5   0.49617733 0.0005958436    6421.9605    7441.9157    13863.876    963404.98 
   17000           85    0.4927148 -0.0011356266    6461.4261     7389.983    13851.409    959024.52 
   17100         85.5   0.50314065 5.3234641e-05     6446.629    7546.3551    13992.984    954676.66 
   17200           86   0.50151251 0.0007059452    6460.5869    7521.9354    13982.522    950361.76 
   17300         86.5   0.49870626 0.0010259562    6342.8114    7479.8459    13822.657     946079.1 
   17400           87   0.49855328 0.00097340898    6384.4211    7477.5513    13861.972     941828.3 
   17500         87.5   0.50364166 0.00067330729    6420.0071    7553.8695    13973.877    937609.99 
   17600           88    0.4964015 2.135505e-05    6480.9559    7445.2778    13926.234    933422.85 
   17700         88.5   0.49914434 0.00057200072     6369.717    7486.4164    13856.133    929265.67 
   17800           89   0.49597937 0.0011394804    6386.0762    7438.9466    13825.023    925139.65 
   17900         89.5   0.49979049 0.0011512764    6473.7287    7496.1077    13969.836    921042.29 
   18000           90   0.50389316 0.00039306787    6495.2493    7557.6415    14052.891    916974.05 
   18100         90.5    0.5050024 0.00014982039    6472.1564    7574.2785    14046.435    912935.92 
   18200           91   0.50814439 -0.0001818089    6359.6279    7621.4036    13981.031    908927.21 
   18300         91.5    0.4996416 0.0012046882    6415.7637    7493.8745    13909.638    904948.39 
   18400           92   0.50723882 0.0010573643    6386.4298    7607.8215    13994.251    900998.55 
   18500         92.5   0.50258196 0.00071906409    6406.7186    7537.9755    13944.694    897076.32 
   18600           93   0.50061799 0.00084681229    6498.2498    7508.5188    14006.769    893181.45 
   18700         93.5   0.50024127 0.00084734955    6429.1359    7502.8687    13932.005    889314.21 
   18800           94   0.50051922 -0.00027332748    6496.2085    7507.0375    14003.246    885474.67 
   18900         94.5   0.50461605 0.00016928399    6468.8344    7568.4839    14037.318    881662.59 
   19000           95   0.50670903  0.001379925    6495.9437    7599.8754    14095.819    877877.68 
   19100         95.5   0.50134283 0.0015469704     6464.872    7519.3905    13984.262    874119.75 
   19200           96   0.49936436 0.00064187974    6470.9018    7489.7163    13960.618     870388.7 
   19300         96.5    0.5056635 -0.00010454338    6491.0259     7584.194     14075.22    866683.53 
   19400           97   0.50056171 0.00048525189    6486.3178    7507.6748    13993.993     863003.2 
   19500         97.5   0.49734016 8.1620872e-05    6407.6779    7459.3564    13867.034     859348.7 
   19600           98   0.49869707 0.0010048162    6411.1318    7479.7081     13890.84    855719.62 
   19700         98.5    0.5011408 0.0010258191    6397.0124    7516.3603    13913.373     852115.3 
   19800           99   0.49800095 0.00091479047     6323.574    7469.2673    13792.841    848536.31 
   19900         99.5   0.50271361 0.00054723849    6443.1723    7539.9501    13983.122    844981.99 
   20000          100    0.5024425 -0.0003497095    6444.4126    7535.8838    13980.296    841452.41 
   20100        100.5   0.50588941 7.3158969e-05    6389.5316    7587.5824    13977.114    837947.69 
   20200          101   0.50093144 0.00085563664    6394.2067    7513.2202    13907.427     834465.2 
   20300        101.5    0.5020804 0.00078891669    6387.2627    7530.4529    13917.716    831006.15 
   20400          102   0.50742201 0.0011126309    6443.7693    7610.5689    14054.338    827570.85 
   20500        102.5   0.50754519 -0.0004470268    6459.3242    7612.4165    14071.741    824159.39 
   20600          103    0.5036321 -0.0012084536    6571.8115     7553.726    14125.537    820771.58 
   20700        103.5   0.50574252 0.0021156122     6543.899    7585.3791    14129.278    817406.06 
   20800          104   0.50395474 0.0023609675    6392.9051    7558.5652     13951.47     814063.3 
   20900        104.5   0.49949043 0.0010532011    6463.5697    7491.6073    13955.177    810743.19 
   21000          105   0.50236048 -0.001230631     6497.574    7534.6537    14032.228    807445.38 
   21100        105.5   0.49588422 -0.0005438113    6467.1054    7437.5194    13904.625    804168.15 
   21200          106   0.49583074 0.00034973568     6508.112    7436.7173    13944.829    800913.27 
   21300        106.5    0.4987248 0.0028421436    6555.8762    7480.1239        14036    797679.84 
   21400          107   0.50167937 0.00065527718    6409.7501     7524.438    13934.188     794468.9 
   21500        107.5   0.49913699 -0.0012721643    6444.1609    7486.3062    13930.467    791278.74 
   21600          108   0.49728617 -0.00052565777    6429.0166    7458.5466    13887.563    788109.71 
   21700        108.5   0.49478097 0.0019706124    6442.7631    7420.9724    13863.736    784960.94 
   21800          109   0.49371486 0.0013200225     6422.369    7404.9824    13827.351    781832.72 
   21900        109.5   0.49565655 -0.0017050123    6411.8676    7434.1047    13845.972    778725.36 
   22000          110   0.49893635 -0.00015541559    6368.6565    7483.2969    13851.953    775636.72 
   22100        110.5   0.49562289 0.00077945055    6392.9547    7433.5999    13826.555    772568.84 
   22200          111   0.48901495 0.0018336741    6525.2634    7334.4907    13859.754    769521.62 
   22300        111.5   0.50303593 0.0015833106    6460.9586    7544.7843    14005.743    766494.86 
   22400          112   0.50485372 0.0018302285    6355.4543    7572.0485    13927.503     763486.9 
   22500        112.5   0.49990205 -0.00040986714    6456.7615    7497.7809    13954.542    760498.05 
   22600          113   0.50329646 -4.7597033e-05    6480.8053    7548.6919    14029.497    757527.58 
   22700        113.5   0.50104083 0.00099849637    6446.0804    7514.8608    13960.941    754575.96 
   22800          114   0.49403061 0.0010062743     6568.626    7409.7181    13978.344    751642.63 
   22900        114.5   0.49890067 0.0012513376    6411.5928    7482.7617    13894.354    748728.28 
   23000          115   0.49676336 4.3389505e-05    6530.3243    7450.7053     13981.03    745833.62 
   23100        115.5   0.49750427 0.00059677612     6480.124    7461.8178    13941.942     742956.4 
   23200          116   0.50197403 -0.00041697281    6448.9012    7528.8575    13977.759    740097.28 
   23300        116.5   0.49851374 0.00013503135    6492.0188    7476.9583    13968.977    737256.29 
   23400          117   0.50135744 0.0014513587    6476.3252    7519.6096    13995.935    734432.98 
   23500        117.5   0.50317884 0.0012390666    6497.5039    7546.9279    14044.432    731628.06 
   23600          118   0.50272388 0.0017024826    6462.1207    7540.1042    14002.225    728840.66 
   23700        118.5   0.50245125 0.0015349617    6466.4173     7536.015    14002.432     726070.9 
   23800          119   0.50249052 -0.00033774903    6485.2803     7536.604    14021.884    723318.53 
   23900        119.5   0.50170188 -0.00048084586    6397.1597    7524.7756    13921.935    720581.85 
   24000          120   0.50751836 0.00083263587    6442.4256    7612.0141     14054.44    717861.78 
   24100        120.5   0.49452206 -0.00049315744    6459.2681    7417.0891    13876.357    715159.38 
   24200          121   0.49446528 0.00033473565    6425.9376    7416.2375    13842.175    712473.99 
   24300        121.5   0.50021477  0.002072289    6437.0287    7502.4713      13939.5    709804.77 
   24400          122   0.49673238 0.0016205015    6388.7955    7450.2406    13839.036    707152.09 
   24500        122.5   0.49831815 0.00074999412    6420.3679    7474.0248    13894.393    704515.26 
   24600          123   0.50433475 0.00027005673    6418.9343    7564.2648    13983.199    701893.74 
   24700        123.5   0.50246033 -5.3560765e-05    6368.0192    7536.1512     13904.17    699287.82 
   24800          124   0.50086372 0.00079366483    6420.7231    7512.2045    13932.928    696697.85 
   24900        124.5   0.49471519 0.0026910481    6470.2767    7419.9857    13890.262    694123.46 
   25000          125    0.4972367 -0.00027649155      6368.65    7457.8047    13826.455    691565.38 
   25100        125.5   0.49869352 -0.0010176141         6447    7479.6548    13926.655    689022.51 
   25200          126   0.50115778  0.001630076    6407.2592     7516.615    13923.874    686493.86 
   25300        126.5   0.49056218 0.0010491041    6442.3962    7357.6968    13800.093    683980.94 
   25400          127   0.49632668 0.0012017529    6321.9184    7444.1557    13766.074    681482.79 
   25500        127.5   0.49347551 -0.0007005109    6443.0539    7401.3924    13844.446    678999.89 
   25600          128     0.502489 -0.00027170951    6398.5496    7536.5813    13935.131    676530.93 
   25700        128.5   0.51112459 0.00030499857    6432.2666    7666.1022    14098.369    674076.71 
   25800          129   0.50776224 0.0016167303    6500.4919    7615.6719    14116.164    671637.31 
   25900        129.5   0.49980994 0.0015022748    6578.3558    7496.3994    14074.755    669213.23 
   26000          130   0.50388865 -0.00033892232    6442.7784    7557.5739    14000.352    666803.41 
   26100        130.5    0.4927712 -0.00023852903    6544.8925    7390.8289    13935.721    664407.35 
   26200          131    0.4969069 0.00065893493     6496.239    7452.8581    13949.097    662024.19 
   26300        131.5   0.49820051 0.0021575529    6465.9759    7472.2604    13938.236    659655.17 
   26400          132   0.49892703 0.00052006947     6373.043    7483.1571      13856.2    657300.49 
   26500        132.5   0.49902301 0.00031672152    6387.6297    7484.5966    13872.226     654959.8 
   26600          133   0.50396564 0.0012637561    6456.2096    7558.7287    14014.938    652632.84 
   26700        133.5   0.50561717 0.00052260232     6488.049    7583.4991    14071.548    650319.41 
   26800          134    0.4986557 0.00049881653     6521.764    7479.0875    14000.852    648018.82 
   26900        134.5   0.49800504 0.0022903302    6567.0481    7469.3287    14036.377     645731.1 
   27000          135   0.49583671 0.00061412153    6545.6062    7436.8069    13982.413    643457.25 
   27100        135.5   0.50228866 -0.00088486372    6511.7146    7533.5764    14045.291    641196.41 
   27200          136   0.50027068 0.0012689902    6429.7777    7503.3099    13933.088    638947.92 
   27300        136.5   0.50077087 0.00049247734    6461.7744    7510.8119    13972.586    636712.99 
   27400          137   0.50104894 0.00090253577    6422.3795    7514.9826    13937.362    634490.33 
   27500        137.5   0.49927601 0.00078164789    6469.1635    7488.3912    13957.555    632280.87 
   27600          138   0.49611825 0.0010682408    6422.5313    7441.0296    13863.561    630083.58 
   27700        138.5    0.4968235 0.00031894954    6381.8005    7451.6073    13833.408     627898.2 
   27800          139   0.50596226 -0.00049999662    6440.6314     7588.675    14029.306    625724.66 
   27900        139.5   0.50359259 6.802842e-05    6413.0498    7553.1334    13966.183    623563.11 
   28000          140    0.5040376 0.0017433545    6494.4231    7559.8079    14054.231    621413.85 
   28100        140.5   0.49449286 0.0031343354    6453.4862    7416.6511    13870.137    619276.57 
   28200          141   0.49338844 0.0007614999    6429.0471    7400.0865    13829.134     617152.9 
   28300        141.5    0.4995932 0.00068614075    6397.3408    7493.1485    13890.489    615040.53 
   28400          142   0.49762668 0.0019789024    6442.5874    7463.6537    13906.241    612939.76 
   28500        142.5   0.50066256 0.0018112649     6530.487    7509.1875    14039.674    610850.86 
   28600          143   0.50507585 0.00044278065    6415.8341    7575.3802    13991.214    608773.29 
   28700        143.5    0.5003724 0.00081452091    6423.1744    7504.8354     13928.01    606706.95 
   28800          144   0.49439488 0.0017937856    6446.1849    7415.1816    13861.366    604652.17 
   28900        144.5   0.49424849 0.00080770733    6460.7845     7412.986     13873.77    602609.12 
   29000          145   0.49913994 -0.0004060068    6460.6765    7486.3504    13947.027    600577.81 
   29100        145.5   0.50051384 -0.00084545946    6414.6326    7506.9568    13921.589     598557.2 
   29200          146     0.495625 0.00077710804    6416.1382    7433.6315     13849.77    596546.89 
   29300        146.5   0.49554277 0.00041292674    6471.9459    7432.3983    13904.344    594547.77 
   29400          147   0.49296435 -0.00043347757    6469.0631    7393.7258    13862.789    592559.61 
   29500        147.5   0.49846532 0.0019890108    6373.6305    7476.2321    13849.863    590581.75 
   29600          148   0.49548318 0.0026486228    6444.7234    7431.5045    13876.228    588615.09 
   29700        148.5   0.50041838 0.00087414771    6458.3886    7505.5251    13963.914    586659.72 
   29800          149   0.50236922 -0.00010541941    6335.6161    7534.7847    13870.401    584714.57 
   29900        149.5   0.49662259 -0.00012109622    6371.2449    7448.5939    13819.839    582779.82 
   30000          150   0.49823119 0.0011758227    6449.8131    7472.7205    13922.534    580854.64 
   30100        150.5   0.50145052 0.00074123199    6405.1324    7521.0057    13926.138    578940.05 
   30200          151   0.50378045 0.00066495551    6434.6137    7555.9511    13990.565    577035.74 
   30300        151.5   0.50083823 0.0020483021    6479.6568    7511.8222    13991.479    575141.49 
   30400          152   0.50374065 9.4591698e-06    6461.0283    7555.3541    14016.382    573258.21 
   30500        152.5   0.50281353 -0.00030605787    6397.2138    7541.4488    13938.663    571384.88 
   30600          153   0.50077452 0.00077587323     6447.692    7510.8666    13958.559    569521.24 
   30700        153.5   0.49615534 0.0018184097    6352.1081    7441.5859    13793.694    567667.47 
   30800          154   0.49699691 0.0013435937    6319.8883    7454.2082    13774.096    565824.35 
   30900        154.5   0.49830018 0.0017231182    6354.3199    7473.7552    13828.075    563990.52 
   31000          155   0.50256175 0.0019220073    6289.0492    7537.6724    13826.722    562166.29 
   31100        155.5   0.50077113 -0.00065696672    6365.2455    7510.8158    13876.061    560351.99 
   31200          156    0.4933769 -0.0006463941    6389.8297    7399.9134    13789.743    558547.04 
   31300        156.5   0.49281255 0.00089518271    6432.4293    7391.4491    13823.878    556751.92 
   31400          157   0.49377133 0.0027176349    6514.3235    7405.8293    13920.153    554965.41 
   31500        157.5   0.49578311 0.0010274897    6517.4572     7436.003     13953.46    553188.16 
   31600          158   0.49816082 -0.0012133719    6517.8078    7471.6651    13989.473     551419.9 
   31700        158.5     0.491247 0.00022468674    6538.5213    7367.9682    13906.489    549661.08 
   31800          159   0.49756869 0.0021490814    6416.2219     7462.784    13879.006    547911.16 
   31900        159.5   0.50299682 0.0031390655    6395.6903    7544.1978    13939.888    546170.56 
   32000          160   0.49373086 -0.00083486241    6459.1628    7405.2223    13864.385    544439.95 
   32100        160.5   0.50211568 -0.0018526513     6371.088    7530.9821     13902.07    542717.67 
   32200          161   0.50113833 0.0021023659    6427.1412    7516.3233    13943.464    541003.45 
   32300        161.5   0.49981118 0.0046928751    6442.2732    7496.4179    13938.691    539297.76 
   32400          162   0.49818438 0.00043313248    6448.0092    7472.0184    13920.028    537601.42 
   32500        162.5   0.49673523 -0.00065676073    6488.2443    7450.2833    13938.528    535913.68 
   32600          163   0.49701445 0.0012501709    6437.6523    7454.4712    13892.123    534234.49 
   32700        163.5   0.50227284 0.0016004215    6412.5613    7533.3392    13945.901    532563.96 
   32800          164   0.49875068 -0.0017782701    6327.2861    7480.5121    13807.798    530901.87 
   32900        164.5   0.50192642 -0.00089371415    6407.2238    7528.1434    13935.367    529247.22 
   33000          165   0.49650776  0.001473116    6511.3841    7446.8716    13958.256    527600.89 
   33100        165.5   0.49889095 0.0037375187    6513.3302    7482.6158    13995.946    525962.86 
   33200          166   0.49853927 0.0012436408    6536.1036    7477.3412    14013.445    524333.72 
   33300        166.5   0.49806253 -0.00039940921     6478.698    7470.1909    13948.889    522712.83 
   33400          167   0.50730199 0.00093030366    6401.4108    7608.7689     14010.18    521099.87 
   33500        167.5   0.50078339 0.00076642062    6489.9732    7510.9996    14000.973    519495.68 
   33600          168   0.50409816 0.0029256871    6492.8065    7560.7163    14053.523    517899.52 
   33700        168.5   0.50746938 0.0015882357     6491.216    7611.2796    14102.496    516311.37 
   33800          169   0.50593694 -2.2279288e-05    6475.3026    7588.2951    14063.598    514730.35 
   33900        169.5   0.50645655 -0.00022183399    6445.7201    7596.0886    14041.809    513157.15 
   34000          170   0.50467877 0.0018991302     6472.895    7569.4245     14042.32    511591.66 
   34100        170.5   0.50406653 0.0010033732    6482.8001    7560.2419    14043.042    510034.11 
   34200          171   0.50622077 -0.00021094244    6471.0764    7592.5522    14063.629    508483.75 
   34300        171.5   0.49736745 -0.0020834544    6535.3943    7459.7657     13995.16    506941.77 
   34400          172   0.50099482 0.0023097915    6405.9162    7514.1709    13920.087    505407.52 
   34500        172.5   0.49705619 0.0042258994    6418.1021    7455.0973    13873.199    503880.97 
   34600          173   0.50375115 0.00040269767     6391.898    7555.5116     13947.41    502362.12 
   34700        173.5   0.49936586 -0.0010761582    6435.1344    7489.7389    13924.873    500849.74 
   34800          174    0.4964892 0.00046514375    6453.3347    7446.5933    13899.928    499344.79 
   34900        174.5   0.50696966 0.0033392949    6416.7401    7603.7844    14020.525    497846.84 
   35000          175    0.4983405  0.003150153    6392.0028    7474.3601    13866.363     496356.7 
   35100        175.5   0.49495509 0.00028772647    6443.9761     7423.584     13867.56     494873.6 
   35200          176   0.49461673 -0.0021591504    6491.2418    7418.5091    13909.751    493397.68 
   35300        176.5   0.49783453 -0.0034095742    6538.3988    7466.7712     14005.17    491928.72 
   35400          177    0.5003763  0.001126173    6502.2859    7504.8939     14007.18     490466.7 
   35500        177.5   0.51062161 0.0032664273    6505.4799    7658.5582    14164.038    489011.76 
   35600          178   0.51161477 0.0027665878    6447.8132    7673.4541    14121.267    487563.87 
   35700        178.5   0.51402952 0.0021475798    6544.1641    7709.6718    14253.836    486123.17 
   35800          179   0.50764294 -0.00066710119    6504.3294    7613.8827    14118.212    484690.03 
   35900        179.5   0.50239157 -0.00052566619    6563.2739      7535.12    14098.394    483263.36 
   36000          180   0.50293627 0.0030332659    6478.5107    7543.2896      14021.8    481843.02 
   36100        180.5   0.49892859 0.0021257216    6455.1883    7483.1804    13938.369    480429.77 
   36200          181   0.50143346 -0.0014105659    6386.5813    7520.7498    13907.331    479023.82 
   36300        181.5   0.50107348 -0.0018861484    6347.5523    7515.3506    13862.903    477624.35 
   36400          182   0.50265574 0.0035575463    6414.1279    7539.0822     13953.21    476231.01 
   36500        182.5   0.49453413 0.0036509364    6400.9141    7417.2701    13818.184    474844.55 
   36600          183    0.4931367 0.00019219793    6402.6015    7396.3109    13798.912     473464.9 
   36700        183.5   0.49526807 -0.00098253308    6465.5981    7428.2781    13893.876    472091.33 
   36800          184   0.49370192 8.6314956e-05    6428.3886    7404.7883    13833.177    470724.11 
   36900        184.5   0.49536943 0.0010675554    6432.7585    7429.7984    13862.557    469363.73 
   37000          185   0.50935094 0.0019730172    6432.7117    7639.5001    14072.212     468009.6 
   37100        185.5   0.50178664 -0.00029438606    6429.8311     7526.047    13955.878    466662.11 
   37200          186   0.49950314 0.00039799083    6489.3101    7491.7978    13981.108    465320.41 
   37300        186.5   0.49990202 0.0025763262    6424.4378    7497.7805    13922.218    463984.48 
   37400          187   0.49003293 -7.0641815e-05     6580.938    7349.7589    13930.697     462654.9 
   37500        187.5    0.4985338 -0.00013696652    6339.5422    7477.2592    13816.801    461331.39 
   37600          188    0.4908208  0.001594962    6375.8486    7361.5758    13737.424    460014.33 
   37700        188.5   0.49566126 0.0019692774    6379.0357    7434.1754    13813.211    458703.68 
   37800          189   0.49341614 0.0022961343    6325.3182     7400.502     13725.82    457399.17 
   37900        189.5   0.50008902 0.0023365345    6423.6829    7500.5852    13924.268     456100.5 
   38000          190   0.49894688 -0.0026259792    6434.2739    7483.4547    13917.729     454808.1 
   38100        190.5   0.49758416 0.00021681935    6456.5404     7463.016    13919.556    453520.95 
   38200          191    0.5000546 0.0032351298    6318.2376    7500.0689    13818.306    452239.68 
   38300        191.5   0.49248854 0.0019908856    6335.2298    7386.5894    13721.819     450964.6 
   38400          192   0.49016696 -0.0010680885    6309.2573    7351.7691    13661.026    449695.47 
   38500        192.5   0.48801267 -0.00092531241    6433.6812    7319.4581    13753.139    448432.11 
   38600          193   0.49642702 0.0018515269    6403.3586    7445.6607    13849.019     447173.7 
   38700        193.5   0.49603577 0.0017001082     6399.636    7439.7926    13839.429    445921.08 
   38800          194   0.50215205 0.00062175734    6432.8077    7531.5275    13964.335    444674.36 
   38900        194.5   0.50158003 0.0011833305     6510.429     7522.948    14033.377    443433.63 
   39000          195    0.5047363 0.0019510828    6388.9452    7570.2874    13959.233    442198.24 
   39100        195.5   0.50138144 -0.0012399604    6465.3222    7519.9695    13985.292    440968.93 
   39200          196   0.49953498 0.0018145289    6407.7849    7492.2754     13900.06    439744.91 
   39300        196.5   0.50095527 0.00016900081    6374.8752    7513.5776    13888.453    438527.01 
   39400          197   0.49440072 0.0028932257    6326.5697    7415.2692    13741.839    437314.49 
   39500        197.5   0.49708907 0.0037867149    6373.8702    7455.5904    13829.461    436107.56 
   39600          198   0.49666538 0.0027643217    6443.7604    7449.2357    13892.996    434905.68 
   39700        198.5   0.50394655 -0.0022459966    6488.6946    7558.4423    14047.137    433709.39 
   39800          199   0.50477163 -0.00063597244    6510.7744    7570.8173    14081.592    432518.01 
   39900        199.5    0.4995454  0.003561432    6444.1339    7492.4317    13936.566    431331.47 
   40000          200   0.49223019 0.0023241876     6408.849    7382.7145    13791.564    430150.21 
   40100        200.5   0.50016507 -0.00012418999    6407.2909    7501.7258    13909.017     428974.6 
   40200          201   0.50745277 0.0025079888     6347.156    7611.0303    13958.186    427804.01 
   40300        201.5   0.50217573 0.0010400975    6438.6496    7531.8827    13970.532    426638.68 
   40400          202   0.50142128 -0.00056791443    6448.0309    7520.5671    13968.598    425478.62 
   40500        202.5   0.50040933 0.0013096059    6464.1985    7505.3893    13969.588    424323.49 
   40600          203   0.50078621 0.0019023402    6543.9798     7511.042    14055.022    423173.68 
   40700        203.5   0.50314803 -0.00014587116    6471.9294    7546.4657    14018.395    422028.76 
   40800          204   0.50631084 -0.00015563813    6509.0116    7593.9032    14102.915    420888.47 
   40900        204.5   0.50643972 0.0030274803    6449.9969    7595.8361    14045.833    419752.66 
   41000          205   0.50637847 -0.00086291584    6450.9556    7594.9175    14045.873    418622.29 
   41100        205.5   0.50635241 0.00042594434    6480.4272    7594.5266    14074.954    417496.46 
   41200          206    0.5005885 0.0010144455    6472.2753    7508.0766    13980.352    416375.73 
   41300        206.5   0.49937624 0.0014776184    6512.1783    7489.8946    14002.073     415260.1 
   41400          207   0.50300005 0.0018023637    6418.8722    7544.2462    13963.118    414149.58 
   41500        207.5   0.50951612 -0.00042185212    6453.4951    7641.9775    14095.473    413043.91 
   41600          208   0.50005335 -0.00082339364    6518.1708    7500.0501    14018.221    411942.71 
   41700        208.5   0.50175612 0.0028184871    6423.2909    7525.5892     13948.88    410846.02 
   41800          209   0.50158219 0.0037586052    6482.0417    7522.9804    14005.022    409754.49 
   41900        209.5   0.50437267 0.0017609728     6432.417    7564.8334     13997.25    408668.01 
   42000          210   0.50374217 -0.0010467245    6443.6539    7555.3769    13999.031     407586.6 
   42100        210.5   0.50014467 0.0024875162    6422.8144    7501.4198    13924.234    406509.01 
   42200          211   0.50535623 0.0040010469    6343.0738    7579.5854    13922.659    405435.89 
   42300        211.5   0.50251862 0.0021491203    6451.6714    7537.0255    13988.697    404367.69 
   42400          212    0.5022743 -0.0029237737    6434.5176     7533.361    13967.879    403304.17 
   42500        212.5   0.50327574 0.00028059263    6493.2304    7548.3811    14041.612       402245 
   42600          213    0.5036672 0.0039769591    6508.2793    7554.2525    14062.532    401189.87 
   42700        213.5   0.50794174 0.0005214565    6410.8585    7618.3641    14029.223    400139.26 
   42800          214   0.50177193 -0.0010880893    6532.8374    7525.8263    14058.664    399092.73 
   42900        214.5   0.50410399 0.00039399347    6445.5718    7560.8037    14006.376     398050.5 
   43000          215   0.49923998   0.00138877     6360.402    7487.8508    13848.253    397012.59 
   43100        215.5   0.50014524 0.0024917289    6376.8788    7501.4284    13878.307    395978.91 
   43200          216   0.50076872 1.120572e-05    6508.5318    7510.7797    14019.311    394950.33 
   43300        216.5   0.50025376 0.0016808833    6502.9897     7503.056    14006.046    393925.76 
   43400          217    0.5017849  0.001481498    6393.8695    7526.0208     13919.89    392906.05 
   43500        217.5   0.49734122 0.0018688497    6533.1622    7459.3723    13992.534    391890.37 
   43600          218   0.49943265 0.0014636917    6455.6713    7490.7406    13946.412    390879.08 
   43700        218.5   0.49329988 0.0009438694    6487.1114    7398.7582     13885.87    389871.84 
   43800          219   0.50486185  0.001747924     6435.857    7572.1704    14008.027    388869.01 
   43900        219.5   0.49816759 0.0031921278    6466.8552    7471.7666    13938.622    387870.26 
   44000          220   0.49738044 0.0019560401      6549.34    7459.9606    14009.301    386875.63 
   44100        220.5   0.50134655 -0.0006802584    6578.7035    7519.4462     14098.15    385885.16 
   44200          221   0.50174727 -0.00050500244    6520.7397    7525.4564    14046.196    384899.05 
   44300        221.5   0.50274103 -0.00084445763    6473.4327    7540.3613    14013.794    383917.15 
   44400          222   0.49889991 0.0060260095    6525.6463    7482.7503    14008.397    382938.94 
   44500        222.5   0.50260343 0.00080961582    6554.3702    7538.2976    14092.668    381965.66 
   44600          223   0.49775769 0.00027028299    6493.6185    7465.6188    13959.237    380996.35 
   44700        223.5   0.49602497 -0.00044019269     6504.324    7439.6305    13943.955    380030.76 
   44800          224   0.50052171 -0.00029165825     6399.134    7507.0749    13906.209     379068.4 
   44900        224.5   0.50343154 -0.00012655658    6515.2508     7550.718    14065.969    378109.93 
   45000          225   0.50523206 0.0042896086    6420.7004    7577.7231    13998.423    377155.24 
   45100        225.5   0.50167601 0.0023563887    6436.5764    7524.3876    13960.964    376204.94 
   45200          226   0.49663687 0.00073875723    6466.6368     7448.808    13915.445    375258.33 
   45300        226.5   0.50258742 -0.0019165603    6487.8073    7538.0573    14025.865    374315.81 
   45400          227   0.50054718 0.0033456117    6504.1836    7507.4569     14011.64    373376.74 
   45500        227.5   0.49704474 0.0033879095    6545.0259    7454.9255    13999.951    372441.26 
   45600          228   0.50265913 0.0010836938    6418.4552     7539.133    13957.588    371510.04 
   45700        228.5   0.50116201 -0.0027560325    6496.4411    7516.6785     14013.12    370582.65 
   45800          229   0.50198042 0.0016786028    6482.0795    7528.9533    14011.033    369658.21 
   45900        229.5   0.50350135 -0.00010042543    6532.0634     7551.765    14083.828    368737.68 
   46000          230   0.49900735 -0.00017103153    6496.6417    7484.3617    13981.003    367820.94 
   46100        230.5   0.49851487 0.0038110809    6452.7074    7476.9752    13929.683    366907.91 
   46200          231   0.49751645 0.0017461361    6599.2912    7462.0005    14061.292    365998.81 
   46300        231.5   0.50331305 -0.0004054425    6576.7751    7548.9408    14125.716    365093.19 
   46400          232   0.50214818 0.0010352622    6452.9436    7531.4695    13984.413    364190.89 
   46500        232.5   0.50226606 0.00073211208    6363.6221    7533.2375     13896.86    363292.63 
   46600          233   0.49371145 -0.00028170794    6483.2131    7404.9312    13888.144    362398.11 
   46700        233.5   0.49782704 0.00061496591    6530.7871    7466.6589    13997.446    361506.92 
   46800          234   0.49828969 0.0021821347    6525.9346    7473.5979    13999.532    360618.89 
   46900        234.5   0.50271108 0.00016576067    6393.9925    7539.9121    13933.905    359734.64 
   47000          235   0.50152609 0.0006769014     6497.542    7522.1391    14019.681    358854.08 
   47100        235.5   0.50514332 0.0041426758    6492.1718    7576.3921    14068.564    357977.05 
   47200          236   0.49748976 0.0022006839    6640.9943    7461.6002    14102.595    357103.56 
   47300        236.5   0.50168962 -0.00053594515    6531.6527    7524.5917    14056.244    356233.33 
   47400          237   0.50559637 -0.0001738598    6432.4215    7583.1872    14015.609    355366.54 
   47500        237.5   0.50648019 0.0027936779    6433.1764    7596.4431     14029.62    354503.17 
   47600          238   0.49789971 0.0047320401    6487.4918    7467.7488    13955.241     353643.3 
   47700        238.5   0.49664262 0.0022224967    6489.3292    7448.8943    13938.224    352786.93 
   47800          239   0.49991505 -0.0042983254     6525.513    7497.9759    14023.489    351933.75 
   47900        239.5   0.50446859 -0.00055716606    6443.2637    7566.2722    14009.536    351083.48 
   48000          240   0.49017109 -0.0023246392    6494.2432    7351.8311    13846.074    350236.78 
   48100        240.5   0.50323201 0.0046246242    6347.2062    7547.7253    13894.931    349392.55 
   48200          241   0.49760941 0.0030798385    6578.5937    7463.3947    14041.988    348551.92 
   48300        241.5   0.50174316 0.00035513313    6507.9012    7525.3948    14033.296    347714.72 
   48400          242   0.50661428 -0.00099799393     6447.312    7598.4543    14045.766    346880.65 
   48500        242.5   0.50590295 0.0013463162    6483.2766    7587.7854    14071.062    346050.11 
   48600          243   0.50314223 0.0041286291    6468.3677    7546.3787    14014.746    345223.18 
   48700        243.5   0.50118557 0.0018572688    6511.1125    7517.0318    14028.144    344400.04 
   48800          244    0.5037321 -0.00046877396    6432.7427    7555.2259    13987.969    343580.11 
   48900        244.5   0.50291231 -0.0017654033      6446.23    7542.9302     13989.16    342763.11 
   49000          245   0.50276946 0.0049218497    6459.0428    7540.7877     13999.83     341948.7 
   49100        245.5   0.50415722 0.0040526905    6407.7008     7561.602    13969.303    341137.64 
   49200          246   0.49921019 0.0019274151    6431.1446     7487.404    13918.549    340329.49 
   49300        246.5   0.49964543 0.0013170985    6457.7384    7493.9319     13951.67    339524.58 
   49400          247   0.50198445 0.00030940839    6450.0963    7529.0138     13979.11    338722.58 
   49500        247.5   0.49763453 0.00063656527    6477.1472    7463.7714    13940.919    337923.53 
   49600          248   0.49660063 0.0010337097     6438.642    7448.2645    13886.907    337127.66 
   49700        248.5   0.49516821 0.0019816167    6422.8085    7426.7804    13849.589     336334.8 
   49800          249   0.49521598 -0.0014058834    6468.2387    7427.4968    13895.735    335544.68 
   49900        249.5   0.49578577 0.0026928392    6462.7156    7436.0429    13898.759    334757.26 
   50000          250   0.49283799 0.0029129488    6411.1465    7391.8306    13802.977    333973.24 
Loop time of 122.913 on 1 procs for 50000 steps with 10000 atoms

Performance: 175734.293 tau/day, 406.792 timesteps/s
94.7% CPU use with 1 MPI tasks x 1 OpenMP threads

MPI task timing breakdown:
Section |  min time  |  avg time  |  max time  |%varavg| %total
---------------------------------------------------------------
Pair    | 3.5272     | 3.5272     | 3.5272     |   0.0 |  2.87
Bond    | 37.429     | 37.429     | 37.429     |   0.0 | 30.45
Neigh   | 25.167     | 25.167     | 25.167     |   0.0 | 20.48
Comm    | 1.6435     | 1.6435     | 1.6435     |   0.0 |  1.34
Output  | 20.781     | 20.781     | 20.781     |   0.0 | 16.91
Modify  | 33.538     | 33.538     | 33.538     |   0.0 | 27.29
Other   |            | 0.827      |            |       |  0.67

Nlocal:    10000 ave 10000 max 10000 min
Histogram: 1 0 0 0 0 0 0 0 0 0
Nghost:    1758 ave 1758 max 1758 min
Histogram: 1 0 0 0 0 0 0 0 0 0
Neighs:    347 ave 347 max 347 min
Histogram: 1 0 0 0 0 0 0 0 0 0

Total # of neighbors = 347
Ave neighs/atom = 0.0347
Ave special neighs/atom = 4.8
Neighbor list builds = 4834
Dangerous builds = 3388

unfix 2
unfix 3
fix 4 all nve
fix 5 all langevin ${T} ${T} 1 123456
fix 5 all langevin 0.5 ${T} 1 123456
fix 5 all langevin 0.5 0.5 1 123456
fix recen1 all recenter INIT INIT INIT


# RUN
run ${run_steps}
run 100000
Per MPI rank memory allocation (min/avg/max) = 44.89 | 44.89 | 44.89 Mbytes
Step Time Temp Press PotEng KinEng TotEng Volume 
   50000          250   0.49283799 0.0029129488    6411.1465    7391.8306    13802.977    333973.24 
   50100        250.5   0.49524056 0.0030302605    6335.1512    7427.8655    13763.017    333973.24 
   50200          251   0.49303627 -0.0020165458    6382.0526    7394.8045    13776.857    333973.24 
   50300        251.5   0.49656152 0.0012255582    6442.1303     7447.678    13889.808    333973.24 
   50400          252   0.49554098 0.0041478514    6469.8613    7432.3713    13902.233    333973.24 
   50500        252.5   0.50301278 0.0018561718    6503.7496    7544.4372    14048.187    333973.24 
   50600          253   0.49991846 0.0029979011    6390.8109     7498.027    13888.838    333973.24 
   50700        253.5   0.50895493 0.0016743506    6367.5775    7633.5604    14001.138    333973.24 
   50800          254   0.50255953 -0.00051917369    6400.4866    7537.6392    13938.126    333973.24 
   50900        254.5   0.49994689 0.0016809502     6459.905    7498.4534    13958.358    333973.24 
   51000          255   0.49240565 0.0056400563    6427.8556    7385.3461    13813.202    333973.24 
   51100        255.5   0.49442372 -0.00034568259    6419.5225    7415.6142    13835.137    333973.24 
   51200          256   0.49622263 -0.0014086634    6489.2127    7442.5951    13931.808    333973.24 
   51300        256.5    0.4933835  0.004593154    6533.5466    7400.0125    13933.559    333973.24 
   51400          257   0.49841221 0.0053541713    6549.3528    7475.4355    14024.788    333973.24 
   51500        257.5   0.50233798 -0.0014894886    6501.6606    7534.3162    14035.977    333973.24 
   51600          258   0.50468575 -0.0028497449    6401.0453    7569.5292    13970.574    333973.24 
   51700        258.5   0.50376255 0.0014340909    6393.7671    7555.6826     13949.45    333973.24 
   51800          259   0.49993874 0.0018142934    6428.7047    7498.3312    13927.036    333973.24 
   51900        259.5   0.50421775 0.0057366986    6464.3484      7562.51    14026.858    333973.24 
   52000          260   0.49230138 -0.00021621465    6557.1779    7383.7822     13940.96    333973.24 
   52100        260.5   0.49371095 -0.0042019385    6577.7435    7404.9237    13982.667    333973.24 
   52200          261   0.50046248 0.0037577132    6452.5258    7506.1866    13958.712    333973.24 
   52300        261.5   0.50669904 0.0025799927    6506.4416    7599.7256    14106.167    333973.24 
   52400          262   0.50877103 -0.00084711503    6417.2553    7630.8023    14048.058    333973.24 
   52500        262.5   0.50035239 0.0015535758    6505.4265    7504.5353    14009.962    333973.24 
   52600          263   0.49923344 0.0044151531    6430.8388    7487.7527    13918.591    333973.24 
   52700        263.5   0.49552067 0.0024371282    6421.4663    7432.0667    13853.533    333973.24 
   52800          264   0.50371142 0.0036288171     6382.125    7554.9157    13937.041    333973.24 
   52900        264.5   0.50167909 0.00019267383    6435.8218    7524.4338    13960.256    333973.24 
   53000          265   0.49460355  0.001274408    6443.2229    7418.3113    13861.534    333973.24 
   53100        265.5   0.49635463 0.0018427805    6485.6507     7444.575    13930.226    333973.24 
   53200          266    0.5004639 -0.00097535011    6488.0983    7506.2078    13994.306    333973.24 
   53300        266.5   0.50353916 0.0019472549    6489.7338    7552.3321    14042.066    333973.24 
   53400          267   0.49893987 0.0020752447    6475.7744    7483.3497    13959.124    333973.24 
   53500        267.5   0.50163775 0.00087896521    6538.8408    7523.8139    14062.655    333973.24 
   53600          268   0.49822662 0.00035865021    6449.3409    7472.6519    13921.993    333973.24 
   53700        268.5    0.5012815 -0.00018882023    6428.0915    7518.4706    13946.562    333973.24 
   53800          269   0.49542107 -0.0018766565    6471.9953    7430.5729    13902.568    333973.24 
   53900        269.5   0.49731784 0.00030132172    6450.8347    7459.0216    13909.856    333973.24 
   54000          270   0.49378711 0.0045616654    6545.5885    7406.0659    13951.654    333973.24 
   54100        270.5   0.49699303 0.0034993293     6461.043    7454.1499    13915.193    333973.24 
   54200          271    0.5038432 0.0013114607    6408.6096    7556.8922    13965.502    333973.24 
   54300        271.5   0.49787854  0.002468287    6428.4299    7467.4312    13895.861    333973.24 
   54400          272   0.50145738 -0.00071390376    6431.6971    7521.1085    13952.806    333973.24 
   54500        272.5   0.50200231 0.0024701575    6399.9299    7529.2816    13929.212    333973.24 
   54600          273   0.50182264 0.0047628558    6420.2601    7526.5869    13946.847    333973.24 
   54700        273.5   0.49787326 0.0010801218    6466.5832    7467.3521    13933.935    333973.24 
   54800          274   0.49758734 -0.00083925952    6461.2854    7463.0638    13924.349    333973.24 
   54900        274.5   0.49614716 0.0028936405    6444.0632    7441.4631    13885.526    333973.24 
   55000          275   0.49729648 -0.00058449887    6431.7629    7458.7012    13890.464    333973.24 
   55100        275.5   0.49582655 0.0034099301    6490.1658    7436.6545     13926.82    333973.24 
   55200          276   0.49619756 0.0030188774    6460.9063    7442.2191    13903.125    333973.24 
   55300        276.5     0.500578 -0.0009211453     6535.341    7507.9192     14043.26    333973.24 
   55400          277   0.50722307 0.00075431897     6443.458    7607.5852    14051.043    333973.24 
   55500        277.5   0.50321994 0.0059222139    6457.7343    7547.5443    14005.279    333973.24 
   55600          278   0.49958138 0.00085459479    6420.4219    7492.9713    13913.393    333973.24 
   55700        278.5   0.50295986 -0.00092364691    6361.0678    7543.6434    13904.711    333973.24 
   55800          279   0.50289318 0.0042016458    6425.2687    7542.6434    13967.912    333973.24 
   55900        279.5   0.50133869 0.0017637504    6420.9896    7519.3284    13940.318    333973.24 
   56000          280   0.50555233 0.0038088982    6397.2423    7582.5267    13979.769    333973.24 
   56100        280.5   0.49560183 0.00037946691    6511.2785     7433.284    13944.563    333973.24 
   56200          281   0.49384135 -0.00070394001    6458.2135    7406.8795    13865.093    333973.24 
   56300        281.5   0.49260732  0.003405865    6456.6285    7388.3709    13844.999    333973.24 
   56400          282    0.4941187 0.0031507187    6526.1092    7411.0394    13937.149    333973.24 
   56500        282.5   0.50487973 0.00014623735    6454.8073    7572.4387    14027.246    333973.24 
   56600          283   0.50528871 0.00013126495    6497.2158    7578.5727    14075.788    333973.24 
   56700        283.5   0.49532871 0.0016901825    6482.8727    7429.1877     13912.06    333973.24 
   56800          284   0.49431979 0.0032985098    6510.3465    7414.0553    13924.402    333973.24 
   56900        284.5   0.49451977 0.00070318012    6509.9112    7417.0548    13926.966    333973.24 
   57000          285   0.49364316 -0.00014973289    6488.5053     7403.907    13892.412    333973.24 
   57100        285.5    0.5031914 0.0022897371     6502.271    7547.1162    14049.387    333973.24 
   57200          286   0.50416242 0.0025355245    6372.4686    7561.6801    13934.149    333973.24 
   57300        286.5   0.49970927 0.00081552272    6391.1203    7494.8895     13886.01    333973.24 
   57400          287   0.50088758 0.0036832498     6436.603    7512.5624    13949.165    333973.24 
   57500        287.5   0.50051841  0.001865379    6391.7058    7507.0253    13898.731    333973.24 
   57600          288   0.49683135 0.0014737696    6504.7762    7451.7251    13956.501    333973.24 
   57700        288.5   0.50112273 0.0022805186    6495.1799    7516.0893    14011.269    333973.24 
   57800          289   0.50346288 0.00086805298    6479.0008    7551.1881    14030.189    333973.24 
   57900        289.5   0.50265162 0.0012677867    6452.1927    7539.0203    13991.213    333973.24 
   58000          290   0.49529254 0.0010449886     6502.393    7428.6451    13931.038    333973.24 
   58100        290.5   0.49777313 0.0046247139    6436.7995    7465.8503     13902.65    333973.24 
   58200          291   0.49679917  0.004033908    6488.1545    7451.2424    13939.397    333973.24 
   58300        291.5   0.49837502 0.0012875272    6431.0439    7474.8778    13905.922    333973.24 
   58400          292   0.49830202 -0.0011610747    6437.4075    7473.7829     13911.19    333973.24 
   58500        292.5   0.49978273 0.0023465123    6406.3979    7495.9912    13902.389    333973.24 
   58600          293   0.49398294 0.0005681602     6526.535    7409.0031    13935.538    333973.24 
   58700        293.5   0.50129503 0.0039560995    6359.2204    7518.6735    13877.894    333973.24 
   58800          294   0.49773461 0.0033204247    6319.9399    7465.2725    13785.212    333973.24 
   58900        294.5   0.49917715 0.00094780848    6368.4879    7486.9086    13855.396    333973.24 
   59000          295   0.50365171 -0.00027087816     6409.256    7554.0202    13963.276    333973.24 
   59100        295.5    0.4999919 0.0046345765    6457.0903    7499.1286    13956.219    333973.24 
   59200          296   0.49344409 0.0035843939    6481.0251    7400.9212    13881.946    333973.24 
   59300        296.5   0.49501365  0.002974312    6453.5959    7424.4623    13878.058    333973.24 
   59400          297   0.50066487 -0.0015705064    6401.0239     7509.222    13910.246    333973.24 
   59500        297.5   0.50360761 0.00058076796    6405.0552    7553.3587    13958.414    333973.24 
   59600          298   0.50131049 0.0039942443    6437.2173    7518.9054    13956.123    333973.24 
   59700        298.5   0.49921027 0.0041883061    6378.8939    7487.4052    13866.299    333973.24 
   59800          299   0.50095545 4.3762805e-05    6467.6773    7513.5803    13981.258    333973.24 
   59900        299.5   0.50155241 -0.0011706065    6502.2538    7522.5338    14024.788    333973.24 
   60000          300   0.50548509 0.00029063761    6435.2933    7581.5181    14016.811    333973.24 
   60100        300.5   0.49600573 0.0028268055    6502.0275     7439.342    13941.369    333973.24 
   60200          301   0.50275398 0.0044635271    6453.5106    7540.5556    13994.066    333973.24 
   60300        301.5   0.49417513 0.0012165888     6450.709    7411.8857    13862.595    333973.24 
   60400          302   0.49654574 0.00013352689    6396.6765    7447.4412    13844.118    333973.24 
   60500        302.5   0.49390932 0.0014863726    6437.4176     7407.899    13845.317    333973.24 
   60600          303   0.50553752 0.0010039898    6424.1955    7582.3045      14006.5    333973.24 
   60700        303.5    0.5054008 0.0028495537    6413.1435     7580.254    13993.397    333973.24 
   60800          304   0.50092187 0.0021094139    6507.5619    7513.0767    14020.639    333973.24 
   60900        304.5   0.49654006 -0.00022050666    6507.7558     7447.356    13955.112    333973.24 
   61000          305   0.49715378 0.0031290778    6496.5526     7456.561    13953.114    333973.24 
   61100        305.5   0.50330432 0.0035590475     6414.281    7548.8098    13963.091    333973.24 
   61200          306   0.50021609 0.0007623588    6433.9546     7502.491    13936.446    333973.24 
   61300        306.5   0.49995461   0.00235135    6430.8447    7498.5693    13929.414    333973.24 
   61400          307   0.50015799 0.0041847895    6423.0263    7501.6197    13924.646    333973.24 
   61500        307.5    0.4947951 0.0035558164    6410.7299    7421.1843    13831.914    333973.24 
   61600          308   0.49686695 -0.0017743735    6382.1285     7452.259    13834.388    333973.24 
   61700        308.5   0.49952789 -0.0013605955    6402.8034     7492.169    13894.972    333973.24 
   61800          309   0.49362169 0.0015728922    6492.7857    7403.5849    13896.371    333973.24 
   61900        309.5   0.49726409 0.0037782693    6472.2902    7458.2154    13930.506    333973.24 
   62000          310   0.49802879 0.0058209641    6406.9112    7469.6848    13876.596    333973.24 
   62100        310.5   0.49828795 0.00037329258    6440.7048    7473.5718    13914.277    333973.24 
   62200          311   0.50123406 -0.0016077163    6419.5676    7517.7591    13937.327    333973.24 
   62300        311.5    0.5044039 0.0035993276    6380.3779    7565.3019     13945.68    333973.24 
   62400          312   0.50431636 0.0032202685    6345.4411    7563.9889     13909.43    333973.24 
   62500        312.5   0.50260092 0.0034917603    6427.4787      7538.26    13965.739    333973.24 
   62600          313   0.49691256 0.00039904267    6419.7236    7452.9431    13872.667    333973.24 
   62700        313.5   0.49596478 0.00053154652    6585.0558    7438.7277    14023.784    333973.24 
   62800          314   0.49978989 0.00045798085     6462.943    7496.0986    13959.042    333973.24 
   62900        314.5   0.49386176 0.0029076509    6429.7133    7407.1856    13836.899    333973.24 
   63000          315   0.49630466 0.0013599664    6417.5265    7443.8254    13861.352    333973.24 
   63100        315.5   0.50530839 0.0022012926    6381.6741    7578.8679    13960.542    333973.24 
   63200          316   0.50357082 0.0027220002    6448.0987    7552.8069    14000.906    333973.24 
   63300        316.5   0.50229008 0.00024083426    6482.3936    7533.5978    14015.991    333973.24 
   63400          317   0.49844169 0.0021033685    6478.7058    7475.8778    13954.584    333973.24 
   63500        317.5    0.4965816 0.0037537726    6457.3811    7447.9791     13905.36    333973.24 
   63600          318   0.50290363  0.003696902    6430.4977    7542.8001    13973.298    333973.24 
   63700        318.5   0.49901117 0.0013938729    6554.4114     7484.419     14038.83    333973.24 
   63800          319   0.49800727 -0.00032377824    6515.1457    7469.3621    13984.508    333973.24 
   63900        319.5   0.49884837 0.0030920533    6447.0822    7481.9773    13929.059    333973.24 
   64000          320   0.49944351 0.0033720655    6461.8848    7490.9034    13952.788    333973.24 
   64100        320.5   0.49771724 0.0016492717    6440.3858     7465.012    13905.398    333973.24 
   64200          321   0.49909519 0.00086658955    6420.5938    7485.6792    13906.273    333973.24 
   64300        321.5   0.49747625 0.00023134364    6430.9106    7461.3976    13892.308    333973.24 
   64400          322   0.49888682 0.0016702607    6410.7041    7482.5539    13893.258    333973.24 
   64500        322.5    0.5004044 0.0025048612    6437.2919    7505.3154    13942.607    333973.24 
   64600          323   0.49844551 0.0023099677    6395.7759    7475.9349    13871.711    333973.24 
   64700        323.5   0.49918181 0.0030295935    6396.1546    7486.9784    13883.133    333973.24 
   64800          324    0.5019078 0.0016856634     6381.337    7527.8641    13909.201    333973.24 
   64900        324.5   0.49986678 0.00023251342    6349.6694    7497.2518    13846.921    333973.24 
   65000          325   0.50254319 0.0031287008    6505.1927    7537.3941    14042.587    333973.24 
   65100        325.5   0.50316791  0.003522003     6591.654    7546.7639    14138.418    333973.24 
   65200          326   0.51048676 0.0017877917    6583.2498    7656.5356    14239.785    333973.24 
   65300        326.5    0.5044862 0.0015650672    6518.7486    7566.5362    14085.285    333973.24 
   65400          327   0.50153241 0.00044213773    6541.1674    7522.2338    14063.401    333973.24 
   65500        327.5   0.50011223 0.0010305568    6511.7097    7500.9332    14012.643    333973.24 
   65600          328   0.50108893 -0.0013560596      6512.41    7515.5823    14027.992    333973.24 
   65700        328.5   0.50536168 0.0043803827    6430.2369    7579.6671    14009.904    333973.24 
   65800          329   0.50435153 0.0012210151    6539.5439    7564.5165     14104.06    333973.24 
   65900        329.5   0.50209798 0.0059383692    6446.1476    7530.7166    13976.864    333973.24 
   66000          330   0.49690991 -0.0015414915    6473.7233    7452.9033    13926.627    333973.24 
   66100        330.5   0.50035412 0.00076663799    6367.1416    7504.5613    13871.703    333973.24 
   66200          331   0.50085942 0.0014951774    6385.6663      7512.14    13897.806    333973.24 
   66300        331.5   0.49458178 0.0034522613    6477.1592    7417.9848    13895.144    333973.24 
   66400          332   0.49890758 0.0015366389    6532.2409    7482.8653    14015.106    333973.24 
   66500        332.5   0.50141074 0.00039090023    6533.4206     7520.409     14053.83    333973.24 
   66600          333    0.4938658 -0.00089965968    6527.9365    7407.2462    13935.183    333973.24 
   66700        333.5   0.49891904  0.000269446    6373.9826    7483.0372     13857.02    333973.24 
   66800          334   0.49353039 0.0050228536    6486.5121    7402.2155    13888.728    333973.24 
   66900        334.5   0.49894768 0.0014486601    6335.2613    7483.4668    13818.728    333973.24 
   67000          335   0.49906849 4.2449477e-05    6409.5486    7485.2787    13894.827    333973.24 
   67100        335.5   0.49670106 0.0046031619    6475.2924    7449.7708    13925.063    333973.24 
   67200          336   0.49615182 0.0021349713    6482.1239    7441.5331    13923.657    333973.24 
   67300        336.5   0.49721252 0.00080517846    6464.1748     7457.442    13921.617    333973.24 
   67400          337   0.49631325 0.0013833978    6493.6215    7443.9542    13937.576    333973.24 
   67500        337.5   0.49691633 0.0014613534    6583.1102    7452.9996     14036.11    333973.24 
   67600          338    0.4940531 0.0017896477    6475.8512    7410.0554    13885.907    333973.24 
   67700        338.5   0.49428017 0.0011212378    6409.1176    7413.4611    13822.579    333973.24 
   67800          339    0.4904362 -0.0012282737    6496.6633    7355.8074    13852.471    333973.24 
   67900        339.5   0.49816067 -0.0001585628     6399.743    7471.6627    13871.406    333973.24 
   68000          340   0.50130448 0.0026309544    6422.3786    7518.8152    13941.194    333973.24 
   68100        340.5   0.49265932 0.0017793682    6464.6505    7389.1508    13853.801    333973.24 
   68200          341   0.49496307 0.0035382936    6447.8788    7423.7036    13871.582    333973.24 
   68300        341.5   0.49242225 0.0030111093    6414.4029    7385.5952    13799.998    333973.24 
   68400          342   0.49528803 0.0020534747    6503.2633    7428.5776    13931.841    333973.24 
   68500        342.5   0.50050049 -0.0020443968    6347.8717    7506.7566    13854.628    333973.24 
   68600          343   0.50100958 0.0011429622    6378.4386    7514.3922    13892.831    333973.24 
   68700        343.5   0.50564539 0.0048322849      6453.49    7583.9224    14037.412    333973.24 
   68800          344    0.5008124 0.0035068626    6444.2198    7511.4348    13955.655    333973.24 
   68900        344.5   0.49407898 0.0012275932    6447.7158    7410.4436    13858.159    333973.24 
   69000          345    0.4941072 0.0013470296    6478.9568    7410.8669    13889.824    333973.24 
   69100        345.5   0.49906992  0.003146749    6481.8969    7485.3003    13967.197    333973.24 
   69200          346   0.49615141 -0.00039642126     6505.664    7441.5269    13947.191    333973.24 
   69300        346.5    0.4979658 0.00020976085    6387.7098    7468.7401     13856.45    333973.24 
   69400          347   0.49315355 0.0028948259    6526.8692    7396.5636    13923.433    333973.24 
   69500        347.5   0.50024706 0.00058384462     6438.122    7502.9555    13941.078    333973.24 
   69600          348   0.49790536 -0.0029536621    6439.5304    7467.8335    13907.364    333973.24 
   69700        348.5    0.5010425 -0.00032466812    6377.9778    7514.8859    13892.864    333973.24 
   69800          349   0.49601319 0.0053179771    6364.1039    7439.4539    13803.558    333973.24 
   69900        349.5   0.49350002 0.0061971064    6449.0511      7401.76    13850.811    333973.24 
   70000          350   0.50286873 0.00021550633    6434.6179    7542.2766    13976.894    333973.24 
   70100        350.5   0.50411066 -0.0013360104    6521.5866    7560.9037     14082.49    333973.24 
   70200          351   0.50579936 0.0016794809    6527.4494    7586.2318    14113.681    333973.24 
   70300        351.5   0.50482934 0.00083932288     6461.857    7571.6828     14033.54    333973.24 
   70400          352   0.50474341 0.0021646489    6528.2382    7570.3941    14098.632    333973.24 
   70500        352.5   0.50843341 0.0022096653    6595.0164    7625.7385    14220.755    333973.24 
   70600          353   0.50031333 0.0029263852    6568.3152    7503.9494    14072.265    333973.24 
   70700        353.5   0.50964195 9.3971481e-05    6496.8699    7643.8648    14140.735    333973.24 
   70800          354   0.49980538 0.00087571104    6418.9563    7496.3309    13915.287    333973.24 
   70900        354.5   0.49871466 -0.00071859949    6375.1095    7479.9718    13855.081    333973.24 
   71000          355   0.50387753 0.0038436677    6498.5906    7557.4072    14055.998    333973.24 
   71100        355.5    0.5022749    0.0034709    6441.6283    7533.3701    13974.998    333973.24 
   71200          356   0.49739565 0.0015929862     6451.977    7460.1887    13912.166    333973.24 
   71300        356.5   0.50185049 0.0002561661    6461.3168    7527.0045    13988.321    333973.24 
   71400          357   0.49999253 0.00045802364    6496.6495     7499.138    13995.787    333973.24 
   71500        357.5   0.49782116 -1.7989257e-05    6440.8917    7466.5707    13907.462    333973.24 
   71600          358   0.49019202 0.0032230307    6560.6848     7352.145     13912.83    333973.24 
   71700        358.5   0.49857767 0.0019598944      6436.71    7477.9171    13914.627    333973.24 
   71800          359   0.49800748  0.001395429    6450.2677    7469.3652    13919.633    333973.24 
   71900        359.5   0.49689324 0.00046124319    6433.2414    7452.6532    13885.895    333973.24 
   72000          360   0.50165407 -0.00052248714    6420.3009    7524.0585    13944.359    333973.24 
   72100        360.5   0.49492452 0.0030400144    6502.8008    7423.1254    13925.926    333973.24 
   72200          361   0.49601774 0.0033199303    6471.2944     7439.522    13910.816    333973.24 
   72300        361.5    0.5010565 0.0022230143    6350.4108     7515.096    13865.507    333973.24 
   72400          362   0.49664712 -0.0026386198    6500.6434    7448.9618    13949.605    333973.24 
   72500        362.5   0.49917368 -0.00017503343    6467.7026    7486.8564    13954.559    333973.24 
   72600          363   0.50013336 0.0032129341    6473.8871    7501.2503    13975.137    333973.24 
   72700        363.5   0.50004829 0.0028663512    6503.3531    7499.9743    14003.327    333973.24 
   72800          364   0.50324913 0.00098215783    6530.6381    7547.9821     14078.62    333973.24 
   72900        364.5   0.50316816 0.0013187797    6448.7316    7546.7676    13995.499    333973.24 
   73000          365   0.49820606 0.00058036076    6434.7465    7472.3435     13907.09    333973.24 
   73100        365.5   0.49863506  0.001605915     6472.045    7478.7779    13950.823    333973.24 
   73200          366   0.50740045 0.0017534417    6411.7929    7610.2457    14022.039    333973.24 
   73300        366.5   0.50504676 0.00032457959    6424.9904    7574.9439    13999.934    333973.24 
   73400          367   0.50657337 0.0012706368    6485.3167    7597.8407    14083.157    333973.24 
   73500        367.5   0.50136832 0.0030720866    6508.3393    7519.7727    14028.112    333973.24 
   73600          368   0.50012111 0.0019641739    6560.9579    7501.0664    14062.024    333973.24 
   73700        368.5   0.50332552 0.0007565523    6575.3278    7549.1278    14124.456    333973.24 
   73800          369   0.50366931 -0.001121957    6530.5546    7554.2841    14084.839    333973.24 
   73900        369.5   0.49039743 0.00084044423    6605.0069    7355.2258    13960.233    333973.24 
   74000          370   0.49713409 -0.0012551395    6468.8936    7456.2657    13925.159    333973.24 
   74100        370.5   0.49793896 -0.0013165005    6450.5338    7468.3375    13918.871    333973.24 
   74200          371   0.49262479 0.0037833688    6502.3921    7388.6329    13891.025    333973.24 
[...]
  322500        112.5   0.49064594  0.067896854    6583.2749    7358.9532    13942.228    50998.222 
  322600          113   0.49856659  0.041070622    6531.7071     7477.751    14009.458    50914.892 
  322700        113.5   0.49758891  0.039064714    6493.3179    7463.0872    13956.405    50831.703 
  322800          114   0.49507273  0.028098643    6581.2324    7425.3484    14006.581    50748.786 
  322900        114.5   0.50023981  0.052813354    6534.3787    7502.8468    14037.226    50666.084 
  323000          115   0.49996544  0.051157485    6437.9753    7498.7316    13936.707    50583.795 
  323100        115.5   0.49958445  0.028713219    6433.5089    7493.0174    13926.526    50501.943 
  323200          116   0.49582952  0.022136109    6425.0147    7436.6991    13861.714    50420.247 
  323300        116.5   0.49682394   0.03250433    6543.2119    7451.6139    13994.826    50338.735 
  323400          117    0.4983863  0.042337409    6498.2535    7475.0469      13973.3    50257.472 
  323500        117.5   0.50182402  0.055798354    6506.4195    7526.6076    14033.027    50176.471 
  323600          118    0.5052649  0.026897879    6554.6931    7578.2157    14132.909    50095.916 
  323700        118.5   0.50342443 -0.0013161282    6521.1983    7550.6112     14071.81    50015.693 
  323800          119   0.50189289   0.05659703    6566.9661    7527.6405    14094.607    49935.549 
  323900        119.5   0.50376493  0.071541149    6470.1698    7555.7182    14025.888    49855.531 
  324000          120    0.5018524   0.02766397    6483.7326    7527.0332    14010.766    49775.903 
  324100        120.5   0.49894209  0.015356366    6507.7004     7483.383    13991.083    49696.493 
  324200          121   0.49366605  0.071489944    6517.5611    7404.2502    13921.811    49617.135 
  324300        121.5    0.5033964  0.067154385    6499.6858    7550.1908    14049.877     49538.02 
  324400          122    0.4978325 0.0071278868    6544.9473    7466.7407    14011.688    49459.185 
  324500        122.5   0.49379356 -0.00012430607    6602.0107    7406.1628    14008.173    49380.646 
  324600          123   0.49481274  0.027628502    6409.8032    7421.4489    13831.252    49302.403 
  324700        123.5   0.49087422  0.067804779    6477.4154     7362.377    13839.792    49224.169 
  324800          124   0.50061684  0.060102007    6416.2755    7508.5017    13924.777    49146.263 
  324900        124.5   0.49896149  0.030776967    6514.3442     7483.674    13998.018    49068.635 
  325000          125   0.49981424  0.035055549    6555.3583    7496.4638    14051.822    48991.216 
  325100        125.5   0.49576285  0.026473973    6564.1201    7435.6992    13999.819    48914.034 
  325200          126     0.502498  0.025537108    6644.4411    7536.7163    14181.157    48837.034 
  325300        126.5    0.5024479  0.042173616    6606.0952    7535.9648     14142.06    48760.222 
  325400          127   0.50366213   0.06588147    6463.2891    7554.1764    14017.466     48683.61 
  325500        127.5   0.50082722  0.028738492    6538.1751    7511.6571    14049.832     48607.21 
  325600          128   0.49871535  0.032183932    6448.9277    7479.9822     13928.91    48531.052 
  325700        128.5   0.50184687  0.026402845     6517.522    7526.9503    14044.472    48455.062 
  325800          129   0.49840484 0.0090209408    6520.2202     7475.325    13995.545    48379.246 
  325900        129.5   0.49748726  0.021554068    6546.9856    7461.5626    14008.548    48303.651 
  326000          130   0.49926458    0.0436618    6529.3586    7488.2198    14017.578    48228.238 
  326100        130.5   0.49560095  0.050294144    6467.0307    7433.2709    13900.302    48152.953 
  326200          131   0.49013545  0.047450538    6547.9137    7351.2966     13899.21    48077.929 
  326300        131.5   0.50000411  0.045886889    6446.6988    7499.3116     13946.01    48003.214 
  326400          132   0.49808524  0.042245182    6599.3203    7470.5314    14069.852    47928.801 
  326500        132.5   0.50018955  0.045510626     6504.707     7502.093      14006.8    47854.619 
  326600          133   0.49532927  0.031702888    6568.8917    7429.1961    13998.088    47780.639 
  326700        133.5   0.50250346  0.033250054    6442.6003    7536.7982    13979.398    47707.003 
  326800          134   0.49733633   0.05099016    6534.8908    7459.2989     13994.19    47633.673 
  326900        134.5   0.50130756  0.033928957    6483.9732    7518.8615    14002.835    47560.597 
  327000          135   0.50324375  0.040155521    6429.6868    7547.9014    13977.588    47487.578 
  327100        135.5   0.50246798  0.050531883      6411.94     7536.266    13948.206    47414.752 
  327200          136   0.49371371  0.054787645    6512.7832     7404.965    13917.748    47342.205 
  327300        136.5   0.50694414  0.035287395    6419.9117    7603.4017    14023.313    47269.984 
  327400          137   0.49902418  0.052879449    6512.4677    7484.6142    13997.082     47197.83 
  327500        137.5   0.50270324  0.047299452    6581.5048    7539.7945    14121.299    47125.918 
  327600          138   0.49968702  0.043850891    6558.8009    7494.5557    14053.357    47054.204 
  327700        138.5   0.49923014   0.02411929     6589.644    7487.7032    14077.347    46982.701 
  327800          139   0.50817685  0.046855997    6572.8833    7621.8905    14194.774    46911.335 
  327900        139.5   0.50225488  0.038448363    6598.0671    7533.0698    14131.137    46840.356 
  328000          140   0.50548295  0.046422027    6545.8449    7581.4861    14127.331    46769.528 
  328100        140.5    0.5034177  0.064084183     6456.351    7550.5104    14006.861    46698.719 
  328200          141   0.49763579  0.047621403    6504.7072    7463.7904    13968.498     46628.34 
  328300        141.5   0.50105268  0.053332999    6510.6118    7515.0386     14025.65    46558.103 
  328400          142    0.5034464  0.079108423    6570.7935    7550.9409    14121.734    46488.065 
  328500        142.5   0.49789178  0.057896644    6553.0086    7467.6299    14020.639     46418.29 
  328600          143   0.50272243    0.0396345    6511.2922    7540.0824    14051.375    46348.667 
  328700        143.5   0.50526871 0.0053951926    6518.6939    7578.2727    14096.967    46279.191 
  328800          144   0.50607617  0.041311621     6507.479    7590.3835    14097.863    46209.845 
  328900        144.5    0.5042323  0.083597772    6647.0523    7562.7281     14209.78    46140.696 
  329000          145   0.49944895  0.047744193    6573.6479     7490.985    14064.633    46071.756 
  329100        145.5   0.50229704  0.037541061    6526.0896    7533.7021    14059.792    46002.892 
  329200          146   0.50097221  0.046705321    6613.6107    7513.8316    14127.442    45934.213 
  329300        146.5   0.49679701  0.010837963    6544.5537      7451.21    13995.764    45865.673 
  329400          147   0.50076832  0.040413561    6513.5457    7510.7736    14024.319    45797.105 
  329500        147.5   0.49395624  0.055544052    6686.0564    7408.6027    14094.659    45728.782 
  329600          148   0.50085491  0.064690198    6530.1472    7512.0724     14042.22    45660.656 
  329700        148.5   0.50224383  0.027381384    6576.9446     7532.904    14109.849    45592.822 
  329800          149   0.49797555  0.030808696    6594.8542    7468.8862     14063.74    45525.096 
  329900        149.5   0.49943845  0.047782658    6578.3182    7490.8275    14069.146    45457.573 
  330000          150   0.50108797  0.081301231    6544.3619     7515.568     14059.93    45390.239 
  330100        150.5   0.50161847  0.062217596    6536.0384    7523.5246    14059.563    45323.262 
  330200          151   0.49772386  0.031478104    6510.7797    7465.1114    13975.891    45256.461 
  330300        151.5   0.49612415  0.029820229    6522.4892    7441.1181    13963.607    45189.901 
  330400          152   0.49568058  0.050805166    6505.2927    7434.4652    13939.758     45123.37 
  330500        152.5   0.49835524  0.066758915    6456.0679    7474.5811    13930.649    45056.984 
  330600          153   0.50245497  0.067626502    6466.5082    7536.0709    14002.579     44990.78 
  330700        153.5   0.49945481  0.055345748    6460.8028     7491.073    13951.876    44924.845 
  330800          154   0.50042278  0.033485679    6417.3383    7505.5911    13922.929    44859.154 
  330900        154.5   0.49778866  0.050432779     6478.635    7466.0833    13944.718    44793.584 
  331000          155   0.50293173  0.052435887    6488.9623    7543.2215    14032.184    44728.187 
  331100        155.5   0.50020583  0.077515264    6421.4372    7502.3372    13923.774    44662.928 
  331200          156   0.49361209  0.076621666    6568.7525     7403.441    13972.194    44597.811 
  331300        156.5   0.49911355  0.025833627    6508.5031    7485.9546    13994.458    44533.061 
  331400          157   0.49735268  0.027104578    6494.1775    7459.5441    13953.722    44468.479 
  331500        157.5   0.50245951  0.071734754    6456.4874     7536.139    13992.626    44404.009 
  331600          158   0.49609169   0.06505638    6572.7591    7440.6312     14013.39     44339.74 
  331700        158.5    0.4968204  0.033376585    6547.3051    7451.5607    13998.866    44275.687 
  331800          159   0.50013273  0.056807146    6541.6155    7501.2408    14042.856    44211.684 
  331900        159.5   0.50079165  0.042075138    6524.0842    7511.1236    14035.208    44148.002 
  332000          160   0.49230942  0.049856767    6578.3593    7383.9028    13962.262    44084.357 
  332100        160.5   0.49864398  0.050338356    6527.1689    7478.9118    14006.081    44021.083 
  332200          161   0.50210127  0.080203561    6477.3439    7530.7659     14008.11    43957.894 
  332300        161.5   0.50121102  0.058892154    6474.8427    7517.4135    13992.256     43894.99 
  332400          162   0.50235095  0.042218209    6544.6933    7534.5108    14079.204    43832.241 
  332500        162.5   0.49879815  0.034310329    6491.7834     7481.224    13973.007    43769.651 
  332600          163    0.4922352   0.05758976    6514.6517    7382.7897    13897.441    43707.175 
  332700        163.5   0.49204105   0.05333115    6506.7479    7379.8777    13886.626     43644.88 
  332800          164    0.5023068  0.067925869    6567.0349    7533.8485    14100.883    43582.709 
  332900        164.5   0.49485645  0.046633098    6572.0223    7422.1044    13994.127    43520.734 
  333000          165   0.49656823  0.038716163    6577.4263    7447.7786    14025.205    43458.933 
  333100        165.5   0.50302547  0.061908638    6620.1354    7544.6275    14164.763    43397.222 
  333200          166   0.50406698   0.07507815    6550.6493    7560.2486    14110.898    43335.484 
  333300        166.5   0.49465081  0.033520212    6560.1729    7419.0202    13979.193    43273.968 
  333400          167    0.4949564  0.028173053    6457.5492    7423.6036    13881.153    43212.593 
  333500        167.5   0.49964431   0.06400611    6543.5673    7493.9151    14037.482    43151.308 
  333600          168   0.49845942  0.036475156    6521.1707    7476.1436    13997.314    43090.285 
  333700        168.5   0.49278107  0.042940081    6550.7702    7390.9768    13941.747    43029.431 
  333800          169   0.49799468  0.045853855     6620.751    7469.1732    14089.924    42968.811 
  333900        169.5   0.50075031  0.056606623    6562.8182    7510.5036    14073.322    42908.412 
  334000          170   0.48898821  0.082501068    6579.3099    7334.0897      13913.4    42848.117 
  334100        170.5   0.49450108  0.048348742    6495.5252    7416.7744      13912.3     42788.01 
  334200          171    0.4986322  0.036581267      6506.02    7478.7351    13984.755    42728.073 
  334300        171.5   0.49765371  0.042783398      6544.77    7464.0592    14008.829    42668.266 
  334400          172   0.49808977  0.063839939    6471.0178    7470.5994    13941.617    42608.775 
  334500        172.5   0.49887319  0.066571796    6471.3232    7482.3495    13953.673    42549.499 
  334600          173    0.4898273   0.06881009    6553.4609    7346.6748    13900.136    42490.328 
  334700        173.5   0.50243765    0.0472717    6410.7264    7535.8111    13946.538    42431.365 
  334800          174   0.49951798  0.040749708    6469.8922    7492.0204    13961.913    42372.427 
  334900        174.5   0.50004185  0.059723673    6493.9424    7499.8777     13993.82    42313.516 
  335000          175   0.50475933  0.037595753    6562.8837    7570.6329    14133.517     42254.76 
  335100        175.5   0.50153156  0.023569917    6589.0092    7522.2211     14111.23    42196.211 
  335200          176   0.50351391  0.036770593    6529.4822    7551.9534    14081.436    42137.678 
  335300        176.5   0.50831999  0.050162611    6536.3281    7624.0373    14160.365    42079.257 
  335400          177   0.49861911  0.086161766     6571.676    7478.5387    14050.215    42020.883 
  335500        177.5   0.49328758  0.067263842    6677.9495    7398.5737    14076.523    41962.764 
  335600          178   0.50074133  0.035425851    6575.3494    7510.3688    14085.718    41904.795 
  335700        178.5   0.50668921  0.048725207    6576.0252    7599.5781    14175.603      41846.9 
  335800          179   0.49969552  0.084900951    6567.9546    7494.6832    14062.638    41789.179 
  335900        179.5   0.50401788  0.050540971    6579.2451    7559.5122    14138.757    41731.683 
  336000          180   0.50010851  0.018807329    6581.9795    7500.8776    14082.857    41674.191 
  336100        180.5   0.50191805  0.047934041    6555.2589    7528.0178    14083.277    41616.826 
  336200          181   0.49185381  0.075310329    6483.0113    7377.0694    13860.081    41559.703 
  336300        181.5   0.49437101  0.066820683    6569.9078    7414.8237    13984.731    41502.744 
  336400          182   0.50190013  0.051896071    6581.2705    7527.7491     14109.02    41445.987 
  336500        182.5   0.49883068  0.036979126    6579.9054     7481.712    14061.617      41389.5 
  336600          183   0.49095352  0.023469778    6617.7401    7363.5664    13981.306    41333.194 
  336700        183.5   0.50055167  0.068398218    6550.5044    7507.5243    14058.029    41276.878 
  336800          184   0.49754227  0.091495203    6613.0255    7462.3877    14075.413    41220.751 
  336900        184.5   0.49903848   0.04088552    6434.1383    7484.8286    13918.967    41164.902 
  337000          185   0.50000354  0.025579486     6541.925    7499.3031    14041.228    41108.987 
  337100        185.5   0.50015733  0.069043422    6594.9775    7501.6096    14096.587    41053.132 
  337200          186   0.50631071  0.079070745    6497.6494    7593.9012    14091.551    40997.633 
  337300        186.5   0.50493444  0.066247348    6490.4405    7573.2593      14063.7    40942.235 
  337400          187   0.50208224  0.040256264     6582.841    7530.4805    14113.321    40887.006 
  337500        187.5   0.50208691  0.049839613     6597.767    7530.5506    14128.318    40831.945 
  337600          188   0.50012682  0.062632548    6590.5892    7501.1521    14091.741    40777.115 
  337700        188.5   0.50321961  0.056534542    6539.2766    7547.5393    14086.816    40722.452 
  337800          189   0.50687735  0.087599522     6484.133    7602.3999    14086.533    40667.963 
  337900        189.5   0.49709145  0.060924801    6547.2653     7455.626    14002.891    40613.655 
  338000          190   0.49549572  0.058190698    6529.6311    7431.6925    13961.324      40559.3 
  338100        190.5    0.4959733  0.045419599    6470.5479    7438.8556    13909.403    40505.016 
  338200          191   0.49580918  0.070248045    6449.2795    7436.3939    13885.673    40450.836 
  338300        191.5   0.49131347  0.066039146    6545.5829     7368.965    13914.548    40396.861 
  338400          192    0.5032574  0.060370552    6438.4396    7548.1061    13986.546    40343.001 
  338500        192.5   0.49735365  0.063213818    6499.7555    7459.5588    13959.314    40289.328 
  338600          193   0.49730222  0.060547809    6554.2275    7458.7874    14013.015    40235.873 
  338700        193.5    0.5029727  0.072966684    6600.6304     7543.836    14144.466    40182.584 
  338800          194   0.50060436  0.092013413    6578.6432    7508.3145    14086.958    40129.509 
  338900        194.5   0.49768111   0.05196784    6644.1571    7464.4702    14108.627    40076.585 
  339000          195   0.50054538  0.021189679     6563.807    7507.4298    14071.237    40023.857 
  339100        195.5   0.49654797  0.056495739    6597.3614    7447.4748    14044.836     39971.08 
  339200          196   0.50251352  0.079968204    6505.5747    7536.9491    14042.524    39918.285 
  339300        196.5   0.49609766  0.065789823    6573.3013    7440.7207    14014.022    39865.446 
  339400          197   0.49900828  0.064724204    6571.3209    7484.3756    14055.697     39812.76 
  339500        197.5   0.50609813    0.0757014    6604.4854    7590.7128    14195.198    39760.273 
  339600          198   0.50267841  0.074851282    6573.4768    7539.4221    14112.899    39708.019 
  339700        198.5   0.50178303  0.040362218    6530.3243    7525.9928    14056.317    39656.017 
  339800          199   0.49382794  0.049198704    6633.9738    7406.6784    14040.652    39603.975 
  339900        199.5    0.5042345  0.069589341    6536.5351    7562.7612    14099.296    39552.002 
  340000          200   0.50207616   0.07446691     6595.442    7530.3893    14125.831     39500.24 
  340100        200.5   0.50394368  0.058243988     6630.837    7558.3993    14189.236    39448.668 
  340200          201    0.5038665  0.050866508    6587.1701    7557.2418    14144.412    39397.177 
  340300        201.5   0.50363286  0.051268376    6620.5662    7553.7374    14174.304    39345.863 
  340400          202   0.50027461  0.089336372    6630.8101    7503.3688    14134.179    39294.602 
  340500        202.5   0.49860055  0.098724596    6577.2862    7478.2604    14055.547    39243.524 
  340600          203   0.49422515  0.042091673    6545.9388    7412.6359    13958.575    39192.655 
  340700        203.5   0.49550479  0.050231841    6623.5573    7431.8286    14055.386    39141.752 
  340800          204   0.49569909  0.079093915    6649.2968    7434.7428     14084.04    39090.886 
  340900        204.5   0.50247163  0.068606791    6569.7987    7536.3207    14106.119    39040.141 
  341000          205   0.50279375  0.077666189    6579.0918     7541.152    14120.244    38989.507 
  341100        205.5   0.50385115  0.069012979    6627.4824    7557.0114    14184.494    38939.045 
  341200          206   0.49849502  0.058483479    6610.5707    7476.6775    14087.248    38888.732 
  341300        206.5   0.50273585  0.048658006    6438.3875    7540.2837    13978.671     38838.64 
  341400          207   0.49785255  0.065717197    6560.1753    7467.0415    14027.217    38788.671 
  341500        207.5   0.49767977  0.064303035    6545.5761    7464.4501    14010.026    38738.794 
  341600          208   0.49587683  0.070134293    6522.5852    7437.4087    13959.994    38689.013 
  341700        208.5     0.496106   0.06839997    6489.7914    7440.8458    13930.637    38639.427 
  341800          209   0.49763362  0.053020546    6579.9737    7463.7579    14043.732    38590.074 
  341900        209.5   0.49496969  0.044134874    6534.0449    7423.8029    13957.848    38540.897 
  342000          210   0.49852244   0.11345168    6482.0455    7477.0888    13959.134    38491.747 
  342100        210.5   0.49866042  0.050620913    6640.2231    7479.1583    14119.381    38442.801 
