LAMMPS nunchunk data file 

200  atoms          
180  bonds          
160  angles         
0  dihedrals      
0  impropers    

10 atom types     
9  bond types     
8  angle types    
0  dihedral types 
0  improper types 

-25.000000 25.000000 xlo xhi  
-25.000000 25.000000 ylo yhi  
-25.000000 25.000000 zlo zhi  

Masses

	 1  1.0 
	 2  1.0 
	 3  1.0 
	 4  1.0 
	 5  1.0 
	 6  1.0 
	 7  1.0 
	 8  1.0 
	 9  1.0 
	 10 1.0 

Atoms 

	 1 1 1 -2.2467492734157437 -14.590453457056302 17.936189109881962 0 0 0 
	 2 1 2 -2.2984962634494086 -14.541131782183431 16.95879992362595 0 0 0 
	 3 1 3 -2.350243253483073 -14.49181010731056 15.981410737369938 0 0 0 
	 4 1 4 -2.401990243516738 -14.442488432437688 15.004021551113924 0 0 0 
	 5 1 5 -2.453737233550403 -14.393166757564817 14.026632364857912 0 0 0 
	 6 1 6 -2.5054842235840677 -14.343845082691947 13.049243178601898 0 0 0 
	 7 1 7 -2.557231213617732 -14.294523407819076 12.071853992345886 0 0 0 
	 8 1 8 -2.608978203651397 -14.245201732946205 11.094464806089874 0 0 0 
	 9 1 9 -2.660725193685062 -14.195880058073334 10.117075619833862 0 0 0 
	 10 1 10 -2.712472183718727 -14.146558383200462 9.139686433577847 0 0 0 
	 11 2 1 14.465740698947139 -20.874771906968476 -22.35507334478321 0 0 0 
	 12 2 2 14.596219184276514 -20.57748254077102 -21.43041427376727 0 0 0 
	 13 2 3 14.726697669605887 -20.280193174573565 -20.505755202751324 0 0 0 
	 14 2 4 14.857176154935262 -19.982903808376108 -19.581096131735382 0 0 0 
	 15 2 5 14.987654640264635 -19.685614442178654 -18.656437060719437 0 0 0 
	 16 2 6 15.11813312559401 -19.388325075981196 -17.731777989703495 0 0 0 
	 17 2 7 15.248611610923385 -19.09103570978374 -16.80711891868755 0 0 0 
	 18 2 8 15.379090096252758 -18.793746343586285 -15.882459847671608 0 0 0 
	 19 2 9 15.509568581582133 -18.496456977388828 -14.957800776655665 0 0 0 
	 20 2 10 15.640047066911507 -18.199167611191374 -14.033141705639721 0 0 0 
	 21 3 1 -15.736935688526332 -7.72523657174653 3.7034188753835515 0 0 0 
	 22 3 2 -15.931989245724813 -7.571449388555566 2.7554190799666918 0 0 0 
	 23 3 3 -16.12704280292329 -7.417662205364602 1.8074192845498323 0 0 0 
	 24 3 4 -16.322096360121773 -7.263875022173637 0.8594194891329727 0 0 0 
	 25 3 5 -16.517149917320253 -7.110087838982673 -0.08858030628388702 0 0 0 
	 26 3 6 -16.712203474518734 -6.956300655791709 -1.036580101700748 0 0 0 
	 27 3 7 -16.907257031717215 -6.802513472600745 -1.984579897117606 0 0 0 
	 28 3 8 -17.102310588915696 -6.64872628940978 -2.932579692534466 0 0 0 
	 29 3 9 -17.297364146114177 -6.4949391062188155 -3.8805794879513256 0 0 0 
	 30 3 10 -17.492417703312658 -6.3411519230278515 -4.828579283368185 0 0 0 
	 31 4 1 -0.314190495466099 -11.923702081021798 16.213201990560727 0 0 0 
	 32 4 2 -1.1487706144621566 -11.682946224914502 16.666977973537534 0 0 0 
	 33 4 3 -1.9833507334582139 -11.442190368807207 17.120753956514346 0 0 0 
	 34 4 4 -2.817930852454271 -11.20143451269991 17.574529939491153 0 0 0 
	 35 4 5 -3.6525109714503285 -10.960678656592615 18.028305922467965 0 0 0 
	 36 4 6 -4.487091090446387 -10.71992280048532 18.482081905444772 0 0 0 
	 37 4 7 -5.321671209442444 -10.479166944378024 18.935857888421584 0 0 0 
	 38 4 8 -6.156251328438501 -10.238411088270729 19.38963387139839 0 0 0 
	 39 4 9 -6.990831447434559 -9.997655232163432 19.843409854375203 0 0 0 
	 40 4 10 -7.825411566430616 -9.756899376056136 20.29718583735201 0 0 0 
	 41 5 1 -19.20892492328539 19.211350615919663 -11.11528554895962 0 0 0 
	 42 5 2 -19.381303063875013 19.550220869294883 -12.018531212123456 0 0 0 
	 43 5 3 -19.55368120446463 19.889091122670102 -12.921776875287293 0 0 0 
	 44 5 4 -19.726059345054253 20.22796137604532 -13.82502253845113 0 0 0 
	 45 5 5 -19.898437485643875 20.56683162942054 -14.728268201614968 0 0 0 
	 46 5 6 -20.070815626233493 20.90570188279576 -15.631513864778805 0 0 0 
	 47 5 7 -20.243193766823115 21.244572136170977 -16.53475952794264 0 0 0 
	 48 5 8 -20.415571907412733 21.583442389546196 -17.438005191106477 0 0 0 
	 49 5 9 -20.587950048002355 21.922312642921415 -18.341250854270317 0 0 0 
	 50 5 10 -20.760328188591977 22.261182896296635 -19.244496517434154 0 0 0 
	 51 6 1 -9.204173029617474 -0.06030439352918138 15.294528417648134 0 0 0 
	 52 6 2 -8.29814072786803 0.3081761940076333 15.233474959145507 0 0 0 
	 53 6 3 -7.39210842611859 0.676656781544448 15.172421500642882 0 0 0 
	 54 6 4 -6.4860761243691485 1.0451373690812629 15.111368042140255 0 0 0 
	 55 6 5 -5.5800438226197056 1.4136179566180773 15.050314583637629 0 0 0 
	 56 6 6 -4.6740115208702635 1.7820985441548922 14.989261125135002 0 0 0 
	 57 6 7 -3.7679792191208223 2.150579131691707 14.928207666632375 0 0 0 
	 58 6 8 -2.8619469173713803 2.5190597192285216 14.86715420812975 0 0 0 
	 59 6 9 -1.9559146156219374 2.8875403067653362 14.806100749627124 0 0 0 
	 60 6 10 -1.0498823138724962 3.256020894302152 14.745047291124495 0 0 0 
	 61 7 1 23.24630041780541 -2.669590494448176 21.00132524976085 0 0 0 
	 62 7 2 23.300022997485353 -3.2807705374219776 20.23714409355306 0 0 0 
	 63 7 3 23.353745577165295 -3.8919505803957795 19.47296293734527 0 0 0 
	 64 7 4 23.407468156845237 -4.5031306233695805 18.708781781137482 0 0 0 
	 65 7 5 23.46119073652518 -5.114310666343383 17.94460062492969 0 0 0 
	 66 7 6 23.51491331620512 -5.725490709317184 17.1804194687219 0 0 0 
	 67 7 7 23.568635895885063 -6.336670752290986 16.41623831251411 0 0 0 
	 68 7 8 23.622358475565004 -6.947850795264786 15.65205715630632 0 0 0 
	 69 7 9 23.67608105524495 -7.55903083823859 14.88787600009853 0 0 0 
	 70 7 10 23.72980363492489 -8.170210881212391 14.123694843890739 0 0 0 
	 71 8 1 -0.8190957883107197 5.2998503775138985 -8.378387031490186 0 0 0 
	 72 8 2 -0.6769892653140195 4.920828542041379 -9.270882512911147 0 0 0 
	 73 8 3 -0.5348827423173191 4.54180670656886 -10.163377994332105 0 0 0 
	 74 8 4 -0.3927762193206189 4.16278487109634 -11.055873475753065 0 0 0 
	 75 8 5 -0.25066969632391856 3.7837630356238208 -11.948368957174026 0 0 0 
	 76 8 6 -0.10856317332721843 3.4047412001513013 -12.840864438594984 0 0 0 
	 77 8 7 0.033543349669481914 3.0257193646787823 -13.733359920015944 0 0 0 
	 78 8 8 0.17564987266618182 2.6466975292062633 -14.625855401436903 0 0 0 
	 79 8 9 0.3177563956628826 2.2676756937337434 -15.518350882857863 0 0 0 
	 80 8 10 0.45986291865958284 1.8886538582612236 -16.410846364278825 0 0 0 
	 81 9 1 -19.62552892654752 -13.149614611429106 -5.457044922023913 0 0 0 
	 82 9 2 -18.813569791463934 -13.489325024467602 -5.8879964253598756 0 0 0 
	 83 9 3 -18.001610656380343 -13.829035437506098 -6.318947928695837 0 0 0 
	 84 9 4 -17.189651521296756 -14.168745850544592 -6.7498994320318 0 0 0 
	 85 9 5 -16.377692386213166 -14.508456263583088 -7.180850935367761 0 0 0 
	 86 9 6 -15.56573325112958 -14.848166676621585 -7.611802438703724 0 0 0 
	 87 9 7 -14.75377411604599 -15.18787708966008 -8.042753942039685 0 0 0 
	 88 9 8 -13.941814980962402 -15.527587502698577 -8.473705445375646 0 0 0 
	 89 9 9 -13.129855845878815 -15.867297915737073 -8.90465694871161 0 0 0 
	 90 9 10 -12.317896710795225 -16.20700832877557 -9.335608452047573 0 0 0 
	 91 10 1 -11.134475085443874 -22.759179008055607 -19.088102339376857 0 0 0 
	 92 10 2 -11.767792131005168 -22.954392573320437 -18.36615969363683 0 0 0 
	 93 10 3 -12.401109176566461 -23.149606138585263 -17.644217047896802 0 0 0 
	 94 10 4 -13.034426222127752 -23.344819703850092 -16.922274402156773 0 0 0 
	 95 10 5 -13.667743267689046 -23.540033269114918 -16.200331756416748 0 0 0 
	 96 10 6 -14.301060313250339 -23.735246834379748 -15.478389110676721 0 0 0 
	 97 10 7 -14.934377358811632 -23.930460399644573 -14.756446464936694 0 0 0 
	 98 10 8 -15.567694404372926 -24.125673964909403 -14.034503819196667 0 0 0 
	 99 10 9 -16.201011449934217 -24.32088753017423 -13.31256117345664 0 0 0 
	 100 10 10 -16.834328495495512 -24.51610109543906 -12.590618527716613 0 0 0 
	 101 11 1 13.220112602485178 16.579053456042804 -10.657761810355598 0 0 0 
	 102 11 2 12.91791848927951 17.43472927970019 -11.02775857081722 0 0 0 
	 103 11 3 12.61572437607384 18.290405103357575 -11.39775533127884 0 0 0 
	 104 11 4 12.313530262868174 19.14608092701496 -11.767752091740462 0 0 0 
	 105 11 5 12.011336149662505 20.001756750672346 -12.137748852202085 0 0 0 
	 106 11 6 11.709142036456836 20.85743257432973 -12.507745612663705 0 0 0 
	 107 11 7 11.406947923251167 21.713108397987114 -12.877742373125328 0 0 0 
	 108 11 8 11.1047538100455 22.5687842216445 -13.247739133586949 0 0 0 
	 109 11 9 10.802559696839829 23.424460045301885 -13.617735894048572 0 0 0 
	 110 11 10 10.500365583634162 24.280135868959274 -13.987732654510193 0 0 0 
	 111 12 1 7.1271116551117615 -1.3349946912876387 -0.5654550959630855 0 0 0 
	 112 12 2 7.614799552587515 -1.9407858375450204 0.0308481840646585 0 0 0 
	 113 12 3 8.102487450063268 -2.546576983802402 0.6271514640924025 0 0 0 
	 114 12 4 8.590175347539024 -3.1523681300597843 1.2234547441201467 0 0 0 
	 115 12 5 9.077863245014777 -3.7581592763171656 1.8197580241478906 0 0 0 
	 116 12 6 9.56555114249053 -4.363950422574549 2.4160613041756354 0 0 0 
	 117 12 7 10.053239039966286 -4.96974156883193 3.012364584203379 0 0 0 
	 118 12 8 10.54092693744204 -5.575532715089311 3.6086678642311236 0 0 0 
	 119 12 9 11.028614834917793 -6.1813238613466925 4.204971144258867 0 0 0 
	 120 12 10 11.516302732393548 -6.787115007604076 4.801274424286611 0 0 0 
	 121 13 1 17.199344317105947 -13.798489835274003 -18.65117045624541 0 0 0 
	 122 13 2 16.277156824295265 -13.52948531908729 -18.45724573277081 0 0 0 
	 123 13 3 15.35496933148458 -13.260480802900576 -18.263321009296217 0 0 0 
	 124 13 4 14.432781838673899 -12.991476286713862 -18.069396285821618 0 0 0 
	 125 13 5 13.510594345863215 -12.72247177052715 -17.87547156234702 0 0 0 
	 126 13 6 12.588406853052533 -12.453467254340437 -17.681546838872425 0 0 0 
	 127 13 7 11.66621936024185 -12.184462738153723 -17.487622115397826 0 0 0 
	 128 13 8 10.744031867431168 -11.91545822196701 -17.293697391923228 0 0 0 
	 129 13 9 9.821844374620483 -11.646453705780296 -17.099772668448633 0 0 0 
	 130 13 10 8.8996568818098 -11.377449189593582 -16.905847944974035 0 0 0 
	 131 14 1 24.156015837093392 -20.019674718306447 -9.598876555523955 0 0 0 
	 132 14 2 24.211416792454067 -20.088705019315075 -10.574871202890314 0 0 0 
	 133 14 3 24.26681774781474 -20.157735320323702 -11.550865850256672 0 0 0 
	 134 14 4 24.322218703175416 -20.22676562133233 -12.52686049762303 0 0 0 
	 135 14 5 24.37761965853609 -20.295795922340954 -13.50285514498939 0 0 0 
	 136 14 6 24.433020613896765 -20.36482622334958 -14.47884979235575 0 0 0 
	 137 14 7 24.48842156925744 -20.43385652435821 -15.454844439722105 0 0 0 
	 138 14 8 24.543822524618115 -20.502886825366836 -16.430839087088465 0 0 0 
	 139 14 9 24.59922347997879 -20.571917126375464 -17.406833734454825 0 0 0 
	 140 14 10 24.654624435339464 -20.64094742738409 -18.382828381821184 0 0 0 
	 141 15 1 -12.634255888384061 5.407303110130213 5.159012376622246 0 0 0 
	 142 15 2 -13.255457001008033 4.8134515807003755 5.630021440939041 0 0 0 
	 143 15 3 -13.876658113632004 4.219600051270538 6.101030505255836 0 0 0 
	 144 15 4 -14.497859226255976 3.6257485218407 6.572039569572631 0 0 0 
	 145 15 5 -15.119060338879947 3.0318969924108625 7.043048633889425 0 0 0 
	 146 15 6 -15.740261451503919 2.438045462981025 7.514057698206221 0 0 0 
	 147 15 7 -16.36146256412789 1.8441939335511877 7.985066762523015 0 0 0 
	 148 15 8 -16.982663676751862 1.2503424041213504 8.456075826839811 0 0 0 
	 149 15 9 -17.603864789375834 0.6564908746915119 8.927084891156605 0 0 0 
	 150 15 10 -18.225065901999805 0.06263934526167425 9.398093955473401 0 0 0 
	 151 16 1 -19.773732983741056 18.904421189507637 14.797571126054809 0 0 0 
	 152 16 2 -18.937650197870127 18.42180549620852 14.966235490256974 0 0 0 
	 153 16 3 -18.1015674119992 17.939189802909404 15.13489985445914 0 0 0 
	 154 16 4 -17.26548462612827 17.456574109610287 15.303564218661306 0 0 0 
	 155 16 5 -16.42940184025734 16.973958416311174 15.472228582863472 0 0 0 
	 156 16 6 -15.593319054386413 16.491342723012057 15.640892947065637 0 0 0 
	 157 16 7 -14.757236268515488 16.00872702971294 15.809557311267803 0 0 0 
	 158 16 8 -13.921153482644558 15.526111336413823 15.978221675469971 0 0 0 
	 159 16 9 -13.08507069677363 15.043495643114706 16.146886039672136 0 0 0 
	 160 16 10 -12.248987910902702 14.560879949815591 16.3155504038743 0 0 0 
	 161 17 1 -3.334583377431372 19.476021276704635 -17.348818396651524 0 0 0 
	 162 17 2 -2.550773481354147 19.486015968874554 -17.936986869913937 0 0 0 
	 163 17 3 -1.7669635852769225 19.496010661044473 -18.52515534317635 0 0 0 
	 164 17 4 -0.9831536891996975 19.506005353214388 -19.113323816438765 0 0 0 
	 165 17 5 -0.1993437931224733 19.516000045384306 -19.70149228970118 0 0 0 
	 166 17 6 0.5844661029547522 19.525994737554225 -20.289660762963592 0 0 0 
	 167 17 7 1.3682759990319768 19.535989429724143 -20.877829236226006 0 0 0 
	 168 17 8 2.1520858951092006 19.54598412189406 -21.46599770948842 0 0 0 
	 169 17 9 2.935895791186425 19.55597881406398 -22.054166182750834 0 0 0 
	 170 17 10 3.7197056872636507 19.565973506233895 -22.642334656013247 0 0 0 
	 171 18 1 23.316244900281852 4.40861926745994 -13.935793768628685 0 0 0 
	 172 18 2 23.341924626203358 4.0354960894708345 -14.841619163351037 0 0 0 
	 173 18 3 23.367604352124864 3.6623729114817296 -15.74744455807339 0 0 0 
	 174 18 4 23.39328407804637 3.2892497334926243 -16.653269952795743 0 0 0 
	 175 18 5 23.418963803967877 2.916126555503519 -17.559095347518095 0 0 0 
	 176 18 6 23.444643529889383 2.543003377514413 -18.46492074224045 0 0 0 
	 177 18 7 23.47032325581089 2.1698801995253083 -19.370746136962804 0 0 0 
	 178 18 8 23.4960029817324 1.7967570215362025 -20.276571531685157 0 0 0 
	 179 18 9 23.521682707653905 1.4236338435470977 -21.18239692640751 0 0 0 
	 180 18 10 23.54736243357541 1.0505106655579919 -22.088222321129862 0 0 0 
	 181 19 1 2.6413699932553545 -9.5237816763395 8.49076333488496 0 0 0 
	 182 19 2 2.8616217251953655 -9.927040093142292 7.625158445888179 0 0 0 
	 183 19 3 3.0818734571353765 -10.330298509945084 6.759553556891397 0 0 0 
	 184 19 4 3.3021251890753875 -10.733556926747877 5.893948667894616 0 0 0 
	 185 19 5 3.5223769210153986 -11.13681534355067 5.028343778897835 0 0 0 
	 186 19 6 3.7426286529554096 -11.540073760353463 4.1627388899010525 0 0 0 
	 187 19 7 3.9628803848954206 -11.943332177156256 3.297134000904271 0 0 0 
	 188 19 8 4.183132116835432 -12.346590593959048 2.4315291119074898 0 0 0 
	 189 19 9 4.403383848775443 -12.74984901076184 1.5659242229107084 0 0 0 
	 190 19 10 4.623635580715454 -13.153107427564633 0.7003193339139262 0 0 0 
	 191 20 1 -3.596743069391456 24.588163449942684 7.278115029294774 0 0 0 
	 192 20 2 -3.9452239587213254 23.864423204381737 7.839507162056931 0 0 0 
	 193 20 3 -4.293704848051195 23.14068295882079 8.400899294819087 0 0 0 
	 194 20 4 -4.642185737381064 22.416942713259843 8.962291427581244 0 0 0 
	 195 20 5 -4.990666626710933 21.693202467698892 9.5236835603434 0 0 0 
	 196 20 6 -5.339147516040803 20.969462222137945 10.085075693105559 0 0 0 
	 197 20 7 -5.687628405370672 20.245721976577 10.646467825867713 0 0 0 
	 198 20 8 -6.036109294700541 19.52198173101605 11.207859958629871 0 0 0 
	 199 20 9 -6.38459018403041 18.7982414854551 11.769252091392026 0 0 0 
	 200 20 10 -6.733071073360279 18.074501239894154 12.330644224154184 0 0 0 


Bonds 

	 1 1 1 2 
	 2 2 2 3 
	 3 3 3 4 
	 4 4 4 5 
	 5 5 5 6 
	 6 6 6 7 
	 7 7 7 8 
	 8 8 8 9 
	 9 9 9 10 
	 10 1 11 12 
	 11 2 12 13 
	 12 3 13 14 
	 13 4 14 15 
	 14 5 15 16 
	 15 6 16 17 
	 16 7 17 18 
	 17 8 18 19 
	 18 9 19 20 
	 19 1 21 22 
	 20 2 22 23 
	 21 3 23 24 
	 22 4 24 25 
	 23 5 25 26 
	 24 6 26 27 
	 25 7 27 28 
	 26 8 28 29 
	 27 9 29 30 
	 28 1 31 32 
	 29 2 32 33 
	 30 3 33 34 
	 31 4 34 35 
	 32 5 35 36 
	 33 6 36 37 
	 34 7 37 38 
	 35 8 38 39 
	 36 9 39 40 
	 37 1 41 42 
	 38 2 42 43 
	 39 3 43 44 
	 40 4 44 45 
	 41 5 45 46 
	 42 6 46 47 
	 43 7 47 48 
	 44 8 48 49 
	 45 9 49 50 
	 46 1 51 52 
	 47 2 52 53 
	 48 3 53 54 
	 49 4 54 55 
	 50 5 55 56 
	 51 6 56 57 
	 52 7 57 58 
	 53 8 58 59 
	 54 9 59 60 
	 55 1 61 62 
	 56 2 62 63 
	 57 3 63 64 
	 58 4 64 65 
	 59 5 65 66 
	 60 6 66 67 
	 61 7 67 68 
	 62 8 68 69 
	 63 9 69 70 
	 64 1 71 72 
	 65 2 72 73 
	 66 3 73 74 
	 67 4 74 75 
	 68 5 75 76 
	 69 6 76 77 
	 70 7 77 78 
	 71 8 78 79 
	 72 9 79 80 
	 73 1 81 82 
	 74 2 82 83 
	 75 3 83 84 
	 76 4 84 85 
	 77 5 85 86 
	 78 6 86 87 
	 79 7 87 88 
	 80 8 88 89 
	 81 9 89 90 
	 82 1 91 92 
	 83 2 92 93 
	 84 3 93 94 
	 85 4 94 95 
	 86 5 95 96 
	 87 6 96 97 
	 88 7 97 98 
	 89 8 98 99 
	 90 9 99 100 
	 91 1 101 102 
	 92 2 102 103 
	 93 3 103 104 
	 94 4 104 105 
	 95 5 105 106 
	 96 6 106 107 
	 97 7 107 108 
	 98 8 108 109 
	 99 9 109 110 
	 100 1 111 112 
	 101 2 112 113 
	 102 3 113 114 
	 103 4 114 115 
	 104 5 115 116 
	 105 6 116 117 
	 106 7 117 118 
	 107 8 118 119 
	 108 9 119 120 
	 109 1 121 122 
	 110 2 122 123 
	 111 3 123 124 
	 112 4 124 125 
	 113 5 125 126 
	 114 6 126 127 
	 115 7 127 128 
	 116 8 128 129 
	 117 9 129 130 
	 118 1 131 132 
	 119 2 132 133 
	 120 3 133 134 
	 121 4 134 135 
	 122 5 135 136 
	 123 6 136 137 
	 124 7 137 138 
	 125 8 138 139 
	 126 9 139 140 
	 127 1 141 142 
	 128 2 142 143 
	 129 3 143 144 
	 130 4 144 145 
	 131 5 145 146 
	 132 6 146 147 
	 133 7 147 148 
	 134 8 148 149 
	 135 9 149 150 
	 136 1 151 152 
	 137 2 152 153 
	 138 3 153 154 
	 139 4 154 155 
	 140 5 155 156 
	 141 6 156 157 
	 142 7 157 158 
	 143 8 158 159 
	 144 9 159 160 
	 145 1 161 162 
	 146 2 162 163 
	 147 3 163 164 
	 148 4 164 165 
	 149 5 165 166 
	 150 6 166 167 
	 151 7 167 168 
	 152 8 168 169 
	 153 9 169 170 
	 154 1 171 172 
	 155 2 172 173 
	 156 3 173 174 
	 157 4 174 175 
	 158 5 175 176 
	 159 6 176 177 
	 160 7 177 178 
	 161 8 178 179 
	 162 9 179 180 
	 163 1 181 182 
	 164 2 182 183 
	 165 3 183 184 
	 166 4 184 185 
	 167 5 185 186 
	 168 6 186 187 
	 169 7 187 188 
	 170 8 188 189 
	 171 9 189 190 
	 172 1 191 192 
	 173 2 192 193 
	 174 3 193 194 
	 175 4 194 195 
	 176 5 195 196 
	 177 6 196 197 
	 178 7 197 198 
	 179 8 198 199 
	 180 9 199 200 


Angles 

	 1 1 1 2 3 
	 2 2 2 3 4 
	 3 3 3 4 5 
	 4 4 4 5 6 
	 5 5 5 6 7 
	 6 6 6 7 8 
	 7 7 7 8 9 
	 8 8 8 9 10 
	 9 1 11 12 13 
	 10 2 12 13 14 
	 11 3 13 14 15 
	 12 4 14 15 16 
	 13 5 15 16 17 
	 14 6 16 17 18 
	 15 7 17 18 19 
	 16 8 18 19 20 
	 17 1 21 22 23 
	 18 2 22 23 24 
	 19 3 23 24 25 
	 20 4 24 25 26 
	 21 5 25 26 27 
	 22 6 26 27 28 
	 23 7 27 28 29 
	 24 8 28 29 30 
	 25 1 31 32 33 
	 26 2 32 33 34 
	 27 3 33 34 35 
	 28 4 34 35 36 
	 29 5 35 36 37 
	 30 6 36 37 38 
	 31 7 37 38 39 
	 32 8 38 39 40 
	 33 1 41 42 43 
	 34 2 42 43 44 
	 35 3 43 44 45 
	 36 4 44 45 46 
	 37 5 45 46 47 
	 38 6 46 47 48 
	 39 7 47 48 49 
	 40 8 48 49 50 
	 41 1 51 52 53 
	 42 2 52 53 54 
	 43 3 53 54 55 
	 44 4 54 55 56 
	 45 5 55 56 57 
	 46 6 56 57 58 
	 47 7 57 58 59 
	 48 8 58 59 60 
	 49 1 61 62 63 
	 50 2 62 63 64 
	 51 3 63 64 65 
	 52 4 64 65 66 
	 53 5 65 66 67 
	 54 6 66 67 68 
	 55 7 67 68 69 
	 56 8 68 69 70 
	 57 1 71 72 73 
	 58 2 72 73 74 
	 59 3 73 74 75 
	 60 4 74 75 76 
	 61 5 75 76 77 
	 62 6 76 77 78 
	 63 7 77 78 79 
	 64 8 78 79 80 
	 65 1 81 82 83 
	 66 2 82 83 84 
	 67 3 83 84 85 
	 68 4 84 85 86 
	 69 5 85 86 87 
	 70 6 86 87 88 
	 71 7 87 88 89 
	 72 8 88 89 90 
	 73 1 91 92 93 
	 74 2 92 93 94 
	 75 3 93 94 95 
	 76 4 94 95 96 
	 77 5 95 96 97 
	 78 6 96 97 98 
	 79 7 97 98 99 
	 80 8 98 99 100 
	 81 1 101 102 103 
	 82 2 102 103 104 
	 83 3 103 104 105 
	 84 4 104 105 106 
	 85 5 105 106 107 
	 86 6 106 107 108 
	 87 7 107 108 109 
	 88 8 108 109 110 
	 89 1 111 112 113 
	 90 2 112 113 114 
	 91 3 113 114 115 
	 92 4 114 115 116 
	 93 5 115 116 117 
	 94 6 116 117 118 
	 95 7 117 118 119 
	 96 8 118 119 120 
	 97 1 121 122 123 
	 98 2 122 123 124 
	 99 3 123 124 125 
	 100 4 124 125 126 
	 101 5 125 126 127 
	 102 6 126 127 128 
	 103 7 127 128 129 
	 104 8 128 129 130 
	 105 1 131 132 133 
	 106 2 132 133 134 
	 107 3 133 134 135 
	 108 4 134 135 136 
	 109 5 135 136 137 
	 110 6 136 137 138 
	 111 7 137 138 139 
	 112 8 138 139 140 
	 113 1 141 142 143 
	 114 2 142 143 144 
	 115 3 143 144 145 
	 116 4 144 145 146 
	 117 5 145 146 147 
	 118 6 146 147 148 
	 119 7 147 148 149 
	 120 8 148 149 150 
	 121 1 151 152 153 
	 122 2 152 153 154 
	 123 3 153 154 155 
	 124 4 154 155 156 
	 125 5 155 156 157 
	 126 6 156 157 158 
	 127 7 157 158 159 
	 128 8 158 159 160 
	 129 1 161 162 163 
	 130 2 162 163 164 
	 131 3 163 164 165 
	 132 4 164 165 166 
	 133 5 165 166 167 
	 134 6 166 167 168 
	 135 7 167 168 169 
	 136 8 168 169 170 
	 137 1 171 172 173 
	 138 2 172 173 174 
	 139 3 173 174 175 
	 140 4 174 175 176 
	 141 5 175 176 177 
	 142 6 176 177 178 
	 143 7 177 178 179 
	 144 8 178 179 180 
	 145 1 181 182 183 
	 146 2 182 183 184 
	 147 3 183 184 185 
	 148 4 184 185 186 
	 149 5 185 186 187 
	 150 6 186 187 188 
	 151 7 187 188 189 
	 152 8 188 189 190 
	 153 1 191 192 193 
	 154 2 192 193 194 
	 155 3 193 194 195 
	 156 4 194 195 196 
	 157 5 195 196 197 
	 158 6 196 197 198 
	 159 7 197 198 199 
	 160 8 198 199 200 
