LAMMPS nunchunk data file 

10000  atoms          
9000  bonds          
8000  angles         
0  dihedrals      
0  impropers    

10 atom types     
9  bond types     
8  angle types    
0  dihedral types 
0  improper types 

-50.000000 50.000000 xlo xhi  
-50.000000 50.000000 ylo yhi  
-50.000000 50.000000 zlo zhi  

Masses

	 1  1.0 
	 2  1.0 
	 3  1.0 
	 4  1.0 
	 5  1.0 
	 6  1.0 
	 7  1.0 
	 8  1.0 
	 9  1.0 
	 10 1.0 

Atoms 

	 1 1 1 30.33136533301124 9.996647874816379 -32.735807178333445 0 0 0 
	 2 1 2 29.539489567206644 9.495420161720084 -33.022344350713645 0 0 0 
	 3 1 3 28.74761380140205 8.994192448623787 -33.30888152309385 0 0 0 
	 4 1 4 27.955738035597456 8.492964735527492 -33.59541869547405 0 0 0 
	 5 1 5 27.16386226979286 7.991737022431195 -33.88195586785426 0 0 0 
	 6 1 6 26.37198650398826 7.490509309334899 -34.16849304023446 0 0 0 
	 7 1 7 25.580110738183667 6.9892815962386035 -34.45503021261466 0 0 0 
	 8 1 8 24.788234972379072 6.4880538831423085 -34.741567384994866 0 0 0 
	 9 1 9 23.996359206574475 5.986826170046013 -35.028104557375066 0 0 0 
	 10 1 10 23.204483440769877 5.485598456949717 -35.31464172975527 0 0 0 
	 11 2 1 1.616693306349637 -19.76480439776206 -38.20601849809506 0 0 0 
	 12 2 2 1.9898600632009282 -19.27494336165178 -38.96837191802709 0 0 0 
	 13 2 3 2.3630268200522195 -18.7850823255415 -39.73072533795911 0 0 0 
	 14 2 4 2.7361935769035104 -18.29522128943122 -40.49307875789113 0 0 0 
	 15 2 5 3.1093603337548017 -17.80536025332094 -41.25543217782316 0 0 0 
	 16 2 6 3.482527090606093 -17.31549921721066 -42.01778559775518 0 0 0 
	 17 2 7 3.855693847457384 -16.82563818110038 -42.780139017687205 0 0 0 
	 18 2 8 4.228860604308675 -16.3357771449901 -43.54249243761923 0 0 0 
	 19 2 9 4.6020273611599665 -15.84591610887982 -44.30484585755125 0 0 0 
	 20 2 10 4.975194118011258 -15.35605507276954 -45.067199277483276 0 0 0 
	 21 3 1 41.17499498290588 48.965736845274535 1.7140351541319987 0 0 0 
	 22 3 2 40.688915936389726 48.54965800871813 2.456332643220989 0 0 0 
	 23 3 3 40.20283688987357 48.13357917216173 3.1986301323099795 0 0 0 
	 24 3 4 39.71675784335743 47.71750033560533 3.9409276213989703 0 0 0 
	 25 3 5 39.230678796841275 47.30142149904893 4.68322511048796 0 0 0 
	 26 3 6 38.74459975032512 46.885342662492526 5.425522599576951 0 0 0 
	 27 3 7 38.25852070380897 46.469263825936125 6.167820088665942 0 0 0 
	 28 3 8 37.772441657292816 46.053184989379716 6.910117577754931 0 0 0 
	 29 3 9 37.28636261077666 45.637106152823314 7.652415066843922 0 0 0 
	 30 3 10 36.80028356426052 45.22102731626691 8.394712555932914 0 0 0 
	 31 4 1 36.602825900570714 33.84349183409695 -46.45931383485266 0 0 0 
	 32 4 2 36.69953256831063 33.479706612839294 -45.55448891631363 0 0 0 
	 33 4 3 36.79623923605055 33.11592139158163 -44.6496639977746 0 0 0 
	 34 4 4 36.89294590379047 32.75213617032397 -43.744839079235575 0 0 0 
	 35 4 5 36.989652571530385 32.38835094906631 -42.840014160696555 0 0 0 
	 36 4 6 37.0863592392703 32.02456572780865 -41.93518924215753 0 0 0 
	 37 4 7 37.183065907010224 31.66078050655099 -41.0303643236185 0 0 0 
	 38 4 8 37.27977257475014 31.296995285293328 -40.12553940507947 0 0 0 
	 39 4 9 37.376479242490056 30.933210064035666 -39.220714486540444 0 0 0 
	 40 4 10 37.47318591022997 30.569424842778005 -38.31588956800142 0 0 0 
	 41 5 1 -18.59548560327665 -27.206450049219 -12.610537730465532 0 0 0 
	 42 5 2 -19.566920036773087 -27.122001204604725 -12.708433256720674 0 0 0 
	 43 5 3 -20.53835447026952 -27.03755235999045 -12.806328782975818 0 0 0 
	 44 5 4 -21.50978890376596 -26.95310351537617 -12.90422430923096 0 0 0 
	 45 5 5 -22.481223337262396 -26.868654670761895 -13.002119835486102 0 0 0 
	 46 5 6 -23.452657770758833 -26.78420582614762 -13.100015361741244 0 0 0 
	 47 5 7 -24.424092204255267 -26.699756981533344 -13.197910887996388 0 0 0 
	 48 5 8 -25.395526637751704 -26.61530813691907 -13.29580641425153 0 0 0 
	 49 5 9 -26.36696107124814 -26.53085929230479 -13.393701940506672 0 0 0 
	 50 5 10 -27.33839550474458 -26.446410447690514 -13.491597466761815 0 0 0 
	 51 6 1 43.46419454970465 -19.80934415061162 -45.66427408070085 0 0 0 
	 52 6 2 43.902071887733406 -19.16766442246117 -45.066854158601146 0 0 0 
	 53 6 3 44.33994922576216 -18.52598469431072 -44.46943423650144 0 0 0 
	 54 6 4 44.77782656379092 -17.88430496616027 -43.87201431440174 0 0 0 
	 55 6 5 45.21570390181967 -17.24262523800982 -43.274594392302035 0 0 0 
	 56 6 6 45.65358123984843 -16.600945509859365 -42.67717447020233 0 0 0 
	 57 6 7 46.091458577877184 -15.959265781708917 -42.079754548102635 0 0 0 
	 58 6 8 46.52933591590594 -15.317586053558466 -41.48233462600293 0 0 0 
	 59 6 9 46.967213253934695 -14.675906325408016 -40.88491470390323 0 0 0 
	 60 6 10 47.40509059196345 -14.034226597257565 -40.287494781803524 0 0 0 
	 61 7 1 10.299669715194316 11.63044299062389 -29.566537442130358 0 0 0 
	 62 7 2 9.788124821130841 11.371163337524882 -28.77187028989211 0 0 0 
	 63 7 3 9.276579927067369 11.111883684425871 -27.977203137653863 0 0 0 
	 64 7 4 8.765035033003894 10.852604031326862 -27.182535985415615 0 0 0 
	 65 7 5 8.253490138940421 10.593324378227853 -26.387868833177368 0 0 0 
	 66 7 6 7.741945244876947 10.334044725128843 -25.593201680939117 0 0 0 
	 67 7 7 7.230400350813473 10.074765072029834 -24.79853452870087 0 0 0 
	 68 7 8 6.718855456749999 9.815485418930825 -24.003867376462622 0 0 0 
	 69 7 9 6.2073105626865255 9.556205765831814 -23.209200224224375 0 0 0 
	 70 7 10 5.695765668623051 9.296926112732805 -22.414533071986128 0 0 0 
	 71 8 1 -29.03046943197908 -41.509003575640676 -7.923932605354378 0 0 0 
	 72 8 2 -28.506428234173782 -40.685557671488 -8.011782852576365 0 0 0 
	 73 8 3 -27.982387036368483 -39.862111767335314 -8.099633099798352 0 0 0 
	 74 8 4 -27.458345838563186 -39.038665863182636 -8.187483347020338 0 0 0 
	 75 8 5 -26.934304640757887 -38.21521995902995 -8.275333594242325 0 0 0 
	 76 8 6 -26.41026344295259 -37.391774054877274 -8.363183841464311 0 0 0 
	 77 8 7 -25.886222245147295 -36.5683281507246 -8.451034088686297 0 0 0 
	 78 8 8 -25.362181047341995 -35.74488224657191 -8.538884335908284 0 0 0 
	 79 8 9 -24.8381398495367 -34.921436342419234 -8.62673458313027 0 0 0 
	 80 8 10 -24.3140986517314 -34.09799043826655 -8.714584830352257 0 0 0 
	 81 9 1 -39.875595717687986 18.940452626511718 40.45775638712571 0 0 0 
	 82 9 2 -39.1447146102085 18.466530676843362 40.90676729161703 0 0 0 
	 83 9 3 -38.41383350272902 17.99260872717501 41.355778196108346 0 0 0 
	 84 9 4 -37.682952395249536 17.518686777506655 41.80478910059966 0 0 0 
	 85 9 5 -36.95207128777005 17.044764827838303 42.25380000509097 0 0 0 
	 86 9 6 -36.22119018029056 16.570842878169948 42.70281090958229 0 0 0 
	 87 9 7 -35.49030907281108 16.096920928501596 43.15182181407361 0 0 0 
	 88 9 8 -34.7594279653316 15.622998978833241 43.600832718564924 0 0 0 
	 89 9 9 -34.02854685785211 15.149077029164886 44.04984362305624 0 0 0 
	 90 9 10 -33.29766575037263 14.675155079496532 44.49885452754755 0 0 0 
	 91 10 1 -48.70009628441551 -30.197269825009943 -41.41329030496308 0 0 0 
	 92 10 2 -47.75290929747658 -30.221327326392856 -41.6636062021825 0 0 0 
	 93 10 3 -46.805722310537654 -30.245384827775773 -41.91392209940193 0 0 0 
	 94 10 4 -45.85853532359872 -30.269442329158686 -42.16423799662135 0 0 0 
	 95 10 5 -44.9113483366598 -30.293499830541602 -42.41455389384078 0 0 0 
	 96 10 6 -43.96416134972087 -30.317557331924515 -42.664869791060205 0 0 0 
	 97 10 7 -43.01697436278194 -30.341614833307432 -42.91518568827963 0 0 0 
	 98 10 8 -42.06978737584301 -30.365672334690345 -43.16550158549906 0 0 0 
	 99 10 9 -41.12260038890408 -30.389729836073258 -43.41581748271848 0 0 0 
	 100 10 10 -40.17541340196516 -30.413787337456174 -43.666133379937904 0 0 0 
	 101 11 1 -6.321688862880126 -26.89777357260845 -5.837687544259551 0 0 0 
	 102 11 2 -6.530604178586124 -27.729523969959192 -5.363403170312503 0 0 0 
	 103 11 3 -6.739519494292122 -28.561274367309938 -4.889118796365453 0 0 0 
	 104 11 4 -6.94843480999812 -29.39302476466068 -4.414834422418405 0 0 0 
	 105 11 5 -7.157350125704118 -30.224775162011422 -3.9405500484713567 0 0 0 
	 106 11 6 -7.366265441410116 -31.056525559362168 -3.4662656745243083 0 0 0 
	 107 11 7 -7.575180757116113 -31.88827595671291 -2.991981300577259 0 0 0 
	 108 11 8 -7.784096072822112 -32.720026354063656 -2.5176969266302107 0 0 0 
	 109 11 9 -7.993011388528109 -33.551776751414394 -2.043412552683162 0 0 0 
	 110 11 10 -8.201926704234108 -34.38352714876514 -1.569128178736113 0 0 0 
	 111 12 1 -7.4509041397997855 -31.822420615981372 -12.480724184515301 0 0 0 
	 112 12 2 -7.525570876686527 -31.12860346480065 -11.792652502835146 0 0 0 
	 113 12 3 -7.6002376135732685 -30.43478631361993 -11.10458082115499 0 0 0 
	 114 12 4 -7.67490435046001 -29.740969162439214 -10.416509139474835 0 0 0 
	 115 12 5 -7.749571087346752 -29.047152011258493 -9.72843745779468 0 0 0 
	 116 12 6 -7.824237824233493 -28.353334860077773 -9.040365776114523 0 0 0 
	 117 12 7 -7.898904561120235 -27.659517708897056 -8.352294094434368 0 0 0 
	 118 12 8 -7.973571298006976 -26.965700557716335 -7.6642224127542145 0 0 0 
	 119 12 9 -8.048238034893718 -26.271883406535615 -6.976150731074059 0 0 0 
	 120 12 10 -8.122904771780458 -25.578066255354894 -6.288079049393904 0 0 0 
	 121 13 1 31.84782834136254 -11.633999711994935 35.09436092101439 0 0 0 
	 122 13 2 31.46624620797764 -12.15841110080871 35.82906342595352 0 0 0 
	 123 13 3 31.08466407459274 -12.682822489622485 36.56376593089266 0 0 0 
	 124 13 4 30.70308194120784 -13.20723387843626 37.298468435831786 0 0 0 
	 125 13 5 30.321499807822942 -13.731645267250034 38.03317094077092 0 0 0 
	 126 13 6 29.939917674438043 -14.25605665606381 38.76787344571005 0 0 0 
	 127 13 7 29.558335541053143 -14.780468044877583 39.50257595064919 0 0 0 
	 128 13 8 29.176753407668244 -15.304879433691358 40.23727845558832 0 0 0 
	 129 13 9 28.795171274283344 -15.829290822505135 40.97198096052745 0 0 0 
	 130 13 10 28.413589140898445 -16.35370221131891 41.70668346546658 0 0 0 
	 131 14 1 30.99279840154756 5.253171317785155 17.495391176157572 0 0 0 
	 132 14 2 31.62720873565725 5.408356195935128 18.226035536683547 0 0 0 
	 133 14 3 32.26161906976694 5.5635410740851015 18.956679897209522 0 0 0 
	 134 14 4 32.896029403876625 5.718725952235074 19.687324257735497 0 0 0 
	 135 14 5 33.53043973798631 5.873910830385047 20.417968618261472 0 0 0 
	 136 14 6 34.16485007209601 6.029095708535021 21.148612978787448 0 0 0 
	 137 14 7 34.7992604062057 6.184280586684993 21.87925733931342 0 0 0 
	 138 14 8 35.433670740315385 6.339465464834967 22.609901699839394 0 0 0 
	 139 14 9 36.06808107442507 6.49465034298494 23.34054606036537 0 0 0 
	 140 14 10 36.70249140853476 6.6498352211349125 24.071190420891348 0 0 0 
	 141 15 1 8.439254974023058 44.77507527398614 -6.33630788235341 0 0 0 
	 142 15 2 7.48578344681944 44.91771336477308 -6.16039193120441 0 0 0 
	 143 15 3 6.532311919615822 45.06035145556002 -5.98447598005541 0 0 0 
	 144 15 4 5.578840392412204 45.20298954634695 -5.8085600289064105 0 0 0 
	 145 15 5 4.625368865208585 45.34562763713389 -5.632644077757411 0 0 0 
	 146 15 6 3.6718973380049658 45.488265727920826 -5.456728126608411 0 0 0 
	 147 15 7 2.7184258108013486 45.630903818707765 -5.2808121754594115 0 0 0 
	 148 15 8 1.7649542835977297 45.773541909494696 -5.104896224310412 0 0 0 
	 149 15 9 0.8114827563941116 45.916180000281635 -4.928980273161412 0 0 0 
	 150 15 10 -0.14198877080950645 46.058818091068574 -4.7530643220124125 0 0 0 
	 151 16 1 2.000538922627626 39.5373442897084 -11.723044690371598 0 0 0 
	 152 16 2 1.7122432228775435 39.57442514225803 -12.658945646605645 0 0 0 
	 153 16 3 1.4239475231274612 39.61150599480766 -13.594846602839691 0 0 0 
	 154 16 4 1.135651823377379 39.64858684735728 -14.530747559073738 0 0 0 
	 155 16 5 0.8473561236272964 39.68566769990691 -15.466648515307785 0 0 0 
	 156 16 6 0.5590604238772139 39.72274855245654 -16.402549471541832 0 0 0 
	 157 16 7 0.2707647241271318 39.759829405006165 -17.33845042777588 0 0 0 
	 158 16 8 -0.017530975622950695 39.79691025755579 -18.274351384009925 0 0 0 
	 159 16 9 -0.3058266753730332 39.833991110105416 -19.210252340243972 0 0 0 
	 160 16 10 -0.5941223751231157 39.871071962655044 -20.14615329647802 0 0 0 
	 161 17 1 4.81047572426585 29.00296609075681 -30.869794983233312 0 0 0 
	 162 17 2 4.650971185586863 28.215558369713296 -31.430996714326387 0 0 0 
	 163 17 3 4.4914666469078774 27.42815064866978 -31.992198445419458 0 0 0 
	 164 17 4 4.3319621082288915 26.640742927626267 -32.55340017651253 0 0 0 
	 165 17 5 4.172457569549905 25.853335206582752 -33.1146019076056 0 0 0 
	 166 17 6 4.012953030870919 25.065927485539238 -33.67580363869868 0 0 0 
	 167 17 7 3.853448492191932 24.278519764495723 -34.23700536979175 0 0 0 
	 168 17 8 3.693943953512946 23.49111204345221 -34.798207100884824 0 0 0 
	 169 17 9 3.534439414833959 22.70370432240869 -35.359408831977895 0 0 0 
	 170 17 10 3.374934876154973 21.916296601365175 -35.92061056307097 0 0 0 
	 171 18 1 9.229841752987355 -18.546246642224528 38.40973228720975 0 0 0 
	 172 18 2 9.71619758858999 -17.791784307764885 38.80298104697508 0 0 0 
	 173 18 3 10.202553424192626 -17.037321973305243 39.196229806740405 0 0 0 
	 174 18 4 10.688909259795263 -16.2828596388456 39.58947856650574 0 0 0 
	 175 18 5 11.175265095397897 -15.528397304385962 39.98272732627107 0 0 0 
	 176 18 6 11.661620931000535 -14.77393496992632 40.375976086036395 0 0 0 
	 177 18 7 12.14797676660317 -14.019472635466677 40.76922484580172 0 0 0 
	 178 18 8 12.634332602205806 -13.265010301007036 41.16247360556705 0 0 0 
	 179 18 9 13.120688437808441 -12.510547966547394 41.555722365332386 0 0 0 
	 180 18 10 13.607044273411077 -11.756085632087752 41.948971125097714 0 0 0 
	 181 19 1 28.528054166339032 -11.882917316318476 3.0524787847725277 0 0 0 
	 182 19 2 28.807801603062536 -12.630159239274544 3.6214874668007977 0 0 0 
	 183 19 3 29.08754903978604 -13.37740116223061 4.190496148829068 0 0 0 
	 184 19 4 29.36729647650954 -14.124643085186678 4.759504830857336 0 0 0 
	 185 19 5 29.647043913233045 -14.871885008142744 5.328513512885608 0 0 0 
	 186 19 6 29.92679134995655 -15.619126931098812 5.897522194913877 0 0 0 
	 187 19 7 30.206538786680053 -16.36636885405488 6.466530876942146 0 0 0 
	 188 19 8 30.486286223403553 -17.113610777010948 7.035539558970417 0 0 0 
	 189 19 9 30.766033660127057 -17.860852699967012 7.604548240998688 0 0 0 
	 190 19 10 31.04578109685056 -18.60809462292308 8.173556923026958 0 0 0 
	 191 20 1 -37.53837911471457 16.706213261308633 25.035022807566698 0 0 0 
	 192 20 2 -37.36068976710084 15.887994339514481 24.525764236934233 0 0 0 
	 193 20 3 -37.183000419487094 15.069775417720331 24.016505666301768 0 0 0 
	 194 20 4 -37.00531107187336 14.251556495926181 23.507247095669307 0 0 0 
	 195 20 5 -36.827621724259615 13.433337574132029 22.997988525036842 0 0 0 
	 196 20 6 -36.64993237664588 12.615118652337877 22.488729954404377 0 0 0 
	 197 20 7 -36.47224302903214 11.796899730543727 21.979471383771916 0 0 0 
	 198 20 8 -36.2945536814184 10.978680808749575 21.47021281313945 0 0 0 
	 199 20 9 -36.11686433380466 10.160461886955424 20.960954242506986 0 0 0 
	 200 20 10 -35.93917498619092 9.342242965161272 20.45169567187452 0 0 0 
	 201 21 1 -20.82950306440603 -10.987324305950896 -32.37050785541208 0 0 0 
	 202 21 2 -20.30538626399673 -10.691111795195308 -33.143786413242694 0 0 0 
	 203 21 3 -19.781269463587435 -10.39489928443972 -33.9170649710733 0 0 0 
	 204 21 4 -19.257152663178136 -10.098686773684134 -34.69034352890392 0 0 0 
	 205 21 5 -18.733035862768837 -9.802474262928547 -35.463622086734524 0 0 0 
	 206 21 6 -18.20891906235954 -9.506261752172959 -36.23690064456514 0 0 0 
	 207 21 7 -17.684802261950242 -9.210049241417373 -37.010179202395754 0 0 0 
	 208 21 8 -17.160685461540947 -8.913836730661785 -37.78345776022636 0 0 0 
	 209 21 9 -16.636568661131648 -8.617624219906197 -38.55673631805698 0 0 0 
	 210 21 10 -16.112451860722352 -8.32141170915061 -39.330014875887585 0 0 0 
	 211 22 1 0.09249619736928505 30.907960651191956 40.8680657141673 0 0 0 
	 212 22 2 -0.5670655179232083 31.59919161836543 40.64994168123914 0 0 0 
	 213 22 3 -1.2266272332157016 32.290422585538906 40.43181764831098 0 0 0 
	 214 22 4 -1.8861889485081946 32.98165355271239 40.213693615382816 0 0 0 
	 215 22 5 -2.545750663800688 33.67288451988586 39.99556958245466 0 0 0 
	 216 22 6 -3.205312379093182 34.36411548705934 39.7774455495265 0 0 0 
	 217 22 7 -3.8648740943856743 35.05534645423281 39.55932151659834 0 0 0 
	 218 22 8 -4.524435809678168 35.746577421406286 39.34119748367018 0 0 0 
	 219 22 9 -5.183997524970661 36.43780838857976 39.12307345074201 0 0 0 
	 220 22 10 -5.843559240263155 37.129039355753235 38.90494941781385 0 0 0 
	 221 23 1 -40.23640289941949 -36.15053677613995 -29.841592631840996 0 0 0 
	 222 23 2 -40.5723252117687 -35.41129244891241 -29.29289050433659 0 0 0 
	 223 23 3 -40.90824752411791 -34.67204812168487 -28.744188376832188 0 0 0 
	 224 23 4 -41.24416983646712 -33.93280379445733 -28.195486249327782 0 0 0 
	 225 23 5 -41.580092148816334 -33.19355946722979 -27.64678412182338 0 0 0 
	 226 23 6 -41.916014461165545 -32.454315140002244 -27.098081994318974 0 0 0 
	 227 23 7 -42.25193677351476 -31.715070812774705 -26.54937986681457 0 0 0 
	 228 23 8 -42.58785908586397 -30.975826485547167 -26.000677739310166 0 0 0 
	 229 23 9 -42.92378139821318 -30.236582158319624 -25.451975611805764 0 0 0 
	 230 23 10 -43.25970371056239 -29.497337831092082 -24.90327348430136 0 0 0 
	 231 24 1 22.86377016986625 -36.66348054653602 19.830152545499168 0 0 0 
	 232 24 2 22.994264317410668 -36.7268138700547 18.860946598556655 0 0 0 
	 233 24 3 23.124758464955086 -36.79014719357338 17.891740651614143 0 0 0 
	 234 24 4 23.255252612499504 -36.85348051709206 16.922534704671627 0 0 0 
	 235 24 5 23.385746760043922 -36.91681384061074 15.953328757729114 0 0 0 
	 236 24 6 23.51624090758834 -36.98014716412942 14.984122810786602 0 0 0 
	 237 24 7 23.64673505513276 -37.0434804876481 14.014916863844089 0 0 0 
	 238 24 8 23.777229202677173 -37.10681381116678 13.045710916901577 0 0 0 
	 239 24 9 23.90772335022159 -37.17014713468546 12.07650496995906 0 0 0 
	 240 24 10 24.03821749776601 -37.23348045820414 11.107299023016548 0 0 0 
	 241 25 1 -23.07093787521839 -30.954401958373367 18.340447362495983 0 0 0 
	 242 25 2 -23.73491480690078 -30.388527098982944 17.89399436642191 0 0 0 
	 243 25 3 -24.398891738583163 -29.822652239592525 17.447541370347842 0 0 0 
	 244 25 4 -25.06286867026555 -29.256777380202102 17.00108837427377 0 0 0 
	 245 25 5 -25.72684560194794 -28.690902520811683 16.554635378199702 0 0 0 
	 246 25 6 -26.390822533630327 -28.12502766142126 16.108182382125634 0 0 0 
	 247 25 7 -27.054799465312712 -27.559152802030837 15.661729386051562 0 0 0 
	 248 25 8 -27.7187763969951 -26.993277942640418 15.215276389977493 0 0 0 
	 249 25 9 -28.382753328677488 -26.427403083249995 14.768823393903421 0 0 0 
	 250 25 10 -29.046730260359872 -25.861528223859573 14.322370397829351 0 0 0 
	 251 26 1 29.098003421364893 -13.389340010100614 2.402059318007277 0 0 0 
	 252 26 2 29.715027186170875 -13.473180660595053 1.6453213058859615 0 0 0 
	 253 26 3 30.33205095097686 -13.557021311089494 0.8885832937646458 0 0 0 
	 254 26 4 30.949074715782842 -13.640861961583933 0.1318452816433302 0 0 0 
	 255 26 5 31.566098480588824 -13.724702612078373 -0.6248927304779852 0 0 0 
	 256 26 6 32.183122245394806 -13.808543262572814 -1.3816307425993015 0 0 0 
	 257 26 7 32.80014601020079 -13.892383913067253 -2.1383687547206165 0 0 0 
	 258 26 8 33.41716977500677 -13.976224563561692 -2.8951067668419324 0 0 0 
	 259 26 9 34.034193539812755 -14.060065214056133 -3.6518447789632473 0 0 0 
	 260 26 10 34.65121730461874 -14.143905864550572 -4.408582791084564 0 0 0 
	 261 27 1 -5.5733272321940035 -47.11921755496049 -42.768070493453216 0 0 0 
	 262 27 2 -5.0326458883058764 -46.356160297181106 -42.47514165274009 0 0 0 
	 263 27 3 -4.49196454441775 -45.59310303940172 -42.182212812026975 0 0 0 
	 264 27 4 -3.9512832005296232 -44.83004578162234 -41.88928397131385 0 0 0 
	 265 27 5 -3.4106018566414966 -44.06698852384295 -41.596355130600735 0 0 0 
	 266 27 6 -2.8699205127533696 -43.303931266063564 -41.30342628988761 0 0 0 
	 267 27 7 -2.329239168865243 -42.54087400828418 -41.01049744917449 0 0 0 
	 268 27 8 -1.7885578249771164 -41.77781675050479 -40.71756860846137 0 0 0 
	 269 27 9 -1.2478764810889897 -41.0147594927254 -40.424639767748246 0 0 0 
	 270 27 10 -0.7071951372008618 -40.25170223494602 -40.13171092703513 0 0 0 
	 271 28 1 -17.748885245487955 -19.284534993016845 -38.997282148612875 0 0 0 
	 272 28 2 -17.39688047660341 -19.385593614436583 -39.906281487292105 0 0 0 
	 273 28 3 -17.044875707718862 -19.486652235856322 -40.815280825971335 0 0 0 
	 274 28 4 -16.692870938834318 -19.58771085727606 -41.724280164650565 0 0 0 
	 275 28 5 -16.340866169949773 -19.6887694786958 -42.6332795033298 0 0 0 
	 276 28 6 -15.988861401065225 -19.78982810011554 -43.54227884200903 0 0 0 
	 277 28 7 -15.636856632180681 -19.890886721535278 -44.45127818068826 0 0 0 
	 278 28 8 -15.284851863296135 -19.991945342955017 -45.36027751936749 0 0 0 
	 279 28 9 -14.932847094411589 -20.093003964374752 -46.26927685804672 0 0 0 
	 280 28 10 -14.580842325527044 -20.19406258579449 -47.17827619672595 0 0 0 
	 281 29 1 -27.034145625099793 -46.01401215200441 -30.352137086356212 0 0 0 
	 282 29 2 -26.26557804290566 -46.06539232006806 -30.957995114222488 0 0 0 
	 283 29 3 -25.497010460711525 -46.11677248813171 -31.563853142088767 0 0 0 
	 284 29 4 -24.72844287851739 -46.16815265619535 -32.16971116995504 0 0 0 
	 285 29 5 -23.95987529632326 -46.219532824259005 -32.77556919782132 0 0 0 
	 286 29 6 -23.191307714129128 -46.27091299232265 -33.3814272256876 0 0 0 
	 287 29 7 -22.422740131934994 -46.3222931603863 -33.98728525355388 0 0 0 
	 288 29 8 -21.65417254974086 -46.37367332844995 -34.593143281420154 0 0 0 
	 289 29 9 -20.885604967546726 -46.4250534965136 -35.19900130928643 0 0 0 
	 290 29 10 -20.117037385352592 -46.47643366457724 -35.804859337152706 0 0 0 
	 291 30 1 -32.3162503591637 4.522496138420184 -18.710862785910763 0 0 0 
	 292 30 2 -32.852525857565745 5.145119613639603 -19.244855855078644 0 0 0 
	 293 30 3 -33.388801355967786 5.767743088859023 -19.778848924246528 0 0 0 
	 294 30 4 -33.92507685436983 6.390366564078442 -20.31284199341441 0 0 0 
	 295 30 5 -34.46135235277187 7.012990039297861 -20.84683506258229 0 0 0 
	 296 30 6 -34.99762785117392 7.635613514517281 -21.38082813175017 0 0 0 
	 297 30 7 -35.53390334957596 8.2582369897367 -21.914821200918055 0 0 0 
	 298 30 8 -36.070178847978 8.88086046495612 -22.448814270085936 0 0 0 
	 299 30 9 -36.60645434638004 9.503483940175538 -22.982807339253817 0 0 0 
	 300 30 10 -37.14272984478208 10.126107415394959 -23.5168004084217 0 0 0 
	 301 31 1 17.696717165281783 1.7387212686950537 27.248968560461506 0 0 0 
	 302 31 2 17.33780983245547 2.488071908652455 26.72929640915942 0 0 0 
	 303 31 3 16.97890249962916 3.237422548609857 26.20962425785734 0 0 0 
	 304 31 4 16.61999516680285 3.986773188567259 25.689952106555253 0 0 0 
	 305 31 5 16.26108783397654 4.7361238285246605 25.170279955253168 0 0 0 
	 306 31 6 15.902180501150227 5.485474468482062 24.650607803951086 0 0 0 
	 307 31 7 15.543273168323916 6.234825108439464 24.130935652649 0 0 0 
	 308 31 8 15.184365835497605 6.984175748396865 23.61126350134692 0 0 0 
	 309 31 9 14.825458502671292 7.733526388354267 23.091591350044833 0 0 0 
	 310 31 10 14.466551169844982 8.48287702831167 22.571919198742748 0 0 0 
	 311 32 1 -37.54099889836211 -42.671123054560354 -14.486640002395944 0 0 0 
	 312 32 2 -38.30101681238446 -42.88278630778285 -15.06799311161648 0 0 0 
	 313 32 3 -39.06103472640682 -43.09444956100535 -15.649346220837014 0 0 0 
	 314 32 4 -39.821052640429166 -43.306112814227845 -16.23069933005755 0 0 0 
	 315 32 5 -40.581070554451514 -43.51777606745034 -16.812052439278084 0 0 0 
	 316 32 6 -41.34108846847387 -43.72943932067284 -17.39340554849862 0 0 0 
	 317 32 7 -42.10110638249622 -43.941102573895336 -17.974758657719157 0 0 0 
	 318 32 8 -42.86112429651857 -44.15276582711783 -18.55611176693969 0 0 0 
	 319 32 9 -43.621142210540924 -44.36442908034033 -19.137464876160223 0 0 0 
	 320 32 10 -44.38116012456327 -44.576092333562826 -19.71881798538076 0 0 0 
	 321 33 1 -29.95347175601024 16.88684138449682 25.96943532603998 0 0 0 
	 322 33 2 -29.2849795014839 17.466633075414677 26.39057627724385 0 0 0 
	 323 33 3 -28.616487246957554 18.046424766332535 26.811717228447716 0 0 0 
	 324 33 4 -27.947994992431212 18.626216457250393 27.232858179651583 0 0 0 
	 325 33 5 -27.27950273790487 19.20600814816825 27.65399913085545 0 0 0 
	 326 33 6 -26.61101048337853 19.785799839086113 28.075140082059317 0 0 0 
	 327 33 7 -25.942518228852187 20.36559153000397 28.496281033263184 0 0 0 
	 328 33 8 -25.27402597432584 20.94538322092183 28.91742198446705 0 0 0 
	 329 33 9 -24.6055337197995 21.525174911839688 29.338562935670915 0 0 0 
	 330 33 10 -23.937041465273154 22.104966602757546 29.759703886874785 0 0 0 
	 331 34 1 -24.693736992556236 6.030063858675561 22.00147146169209 0 0 0 
	 332 34 2 -24.282766543655406 6.64721165475426 21.3606658063445 0 0 0 
	 333 34 3 -23.871796094754576 7.264359450832959 20.71986015099691 0 0 0 
	 334 34 4 -23.460825645853745 7.881507246911658 20.079054495649324 0 0 0 
	 335 34 5 -23.049855196952915 8.498655042990357 19.438248840301732 0 0 0 
	 336 34 6 -22.638884748052085 9.115802839069058 18.79744318495414 0 0 0 
	 337 34 7 -22.227914299151255 9.732950635147755 18.156637529606552 0 0 0 
	 338 34 8 -21.816943850250425 10.350098431226455 17.515831874258964 0 0 0 
	 339 34 9 -21.40597340134959 10.967246227305154 16.875026218911373 0 0 0 
	 340 34 10 -20.995002952448765 11.584394023383854 16.23422056356378 0 0 0 
	 341 35 1 -47.69693700472034 13.963977538591177 -34.729557339558426 0 0 0 
	 342 35 2 -46.877048122639714 13.670810590489873 -35.17926320074054 0 0 0 
	 343 35 3 -46.05715924055909 13.377643642388572 -35.62896906192265 0 0 0 
	 344 35 4 -45.23727035847846 13.084476694287268 -36.07867492310477 0 0 0 
	 345 35 5 -44.417381476397836 12.791309746185966 -36.52838078428689 0 0 0 
	 346 35 6 -43.5974925943172 12.498142798084663 -36.978086645469 0 0 0 
	 347 35 7 -42.777603712236576 12.20497584998336 -37.427792506651116 0 0 0 
	 348 35 8 -41.95771483015595 11.911808901882058 -37.87749836783323 0 0 0 
	 349 35 9 -41.137825948075324 11.618641953780756 -38.327204229015344 0 0 0 
	 350 35 10 -40.3179370659947 11.32547500567945 -38.77691009019746 0 0 0 
	 351 36 1 -14.58164347472043 23.440522038563593 11.388216685535257 0 0 0 
	 352 36 2 -14.761157435675186 23.122909658548807 10.478657938733448 0 0 0 
	 353 36 3 -14.94067139662994 22.80529727853402 9.569099191931638 0 0 0 
	 354 36 4 -15.120185357584695 22.487684898519234 8.65954044512983 0 0 0 
	 355 36 5 -15.299699318539451 22.170072518504448 7.749981698328019 0 0 0 
	 356 36 6 -15.479213279494207 21.85246013848966 6.84042295152621 0 0 0 
	 357 36 7 -15.658727240448961 21.534847758474875 5.930864204724402 0 0 0 
	 358 36 8 -15.838241201403717 21.21723537846009 5.021305457922593 0 0 0 
	 359 36 9 -16.017755162358473 20.899622998445302 4.111746711120783 0 0 0 
	 360 36 10 -16.197269123313227 20.582010618430516 3.2021879643189717 0 0 0 
	 361 37 1 27.302064829572426 8.041575438069126 -30.322110423399984 0 0 0 
	 362 37 2 28.139839508013235 7.733551475265137 -29.917567685853104 0 0 0 
	 363 37 3 28.977614186454048 7.425527512461148 -29.513024948306224 0 0 0 
	 364 37 4 29.815388864894857 7.117503549657159 -29.108482210759345 0 0 0 
	 365 37 5 30.65316354333567 6.80947958685317 -28.703939473212465 0 0 0 
	 366 37 6 31.490938221776478 6.501455624049181 -28.29939673566559 0 0 0 
	 367 37 7 32.32871290021729 6.193431661245192 -27.894853998118705 0 0 0 
	 368 37 8 33.1664875786581 5.885407698441203 -27.49031126057183 0 0 0 
	 369 37 9 34.00426225709891 5.5773837356372145 -27.08576852302495 0 0 0 
	 370 37 10 34.84203693553972 5.2693597728332255 -26.68122578547807 0 0 0 
	 371 38 1 -16.503215103364433 24.220301392893052 21.753196262830578 0 0 0 
	 372 38 2 -16.055651718231648 24.51705907626878 20.9334268479059 0 0 0 
	 373 38 3 -15.608088333098861 24.813816759644507 20.113657432981217 0 0 0 
	 374 38 4 -15.160524947966074 25.110574443020234 19.293888018056535 0 0 0 
	 375 38 5 -14.712961562833287 25.40733212639596 18.474118603131856 0 0 0 
	 376 38 6 -14.265398177700503 25.704089809771688 17.654349188207178 0 0 0 
	 377 38 7 -13.817834792567716 26.000847493147415 16.834579773282496 0 0 0 
	 378 38 8 -13.370271407434931 26.297605176523142 16.014810358357817 0 0 0 
	 379 38 9 -12.922708022302144 26.59436285989887 15.195040943433135 0 0 0 
	 380 38 10 -12.475144637169358 26.891120543274596 14.375271528508454 0 0 0 
	 381 39 1 -18.086519084924934 43.96141739017002 18.244538707590287 0 0 0 
	 382 39 2 -17.4098177931399 43.27000394278663 18.088260729378764 0 0 0 
	 383 39 3 -16.73311650135487 42.57859049540323 17.931982751167237 0 0 0 
	 384 39 4 -16.05641520956984 41.88717704801984 17.775704772955713 0 0 0 
	 385 39 5 -15.379713917784807 41.19576360063645 17.61942679474419 0 0 0 
	 386 39 6 -14.703012625999776 40.50435015325306 17.463148816532666 0 0 0 
	 387 39 7 -14.026311334214743 39.81293670586966 17.30687083832114 0 0 0 
	 388 39 8 -13.349610042429711 39.12152325848627 17.150592860109615 0 0 0 
	 389 39 9 -12.67290875064468 38.43010981110288 16.994314881898088 0 0 0 
	 390 39 10 -11.996207458859647 37.738696363719484 16.838036903686564 0 0 0 
	 391 40 1 29.619806337887034 -18.616763445289173 42.70139331190009 0 0 0 
	 392 40 2 30.43807683637227 -19.132496266677254 42.85904180777559 0 0 0 
	 393 40 3 31.256347334857512 -19.648229088065335 43.016690303651096 0 0 0 
	 394 40 4 32.07461783334275 -20.16396190945342 43.174338799526595 0 0 0 
	 395 40 5 32.89288833182799 -20.6796947308415 43.3319872954021 0 0 0 
	 396 40 6 33.711158830313224 -21.19542755222958 43.4896357912776 0 0 0 