LAMMPS nunchunk data file 

10  atoms          
9  bonds          
8  angles         
0  dihedrals      
0  impropers    

10 atom types     
9  bond types     
8  angle types    
0  dihedral types 
0  improper types 

-25.000000 25.000000 xlo xhi  
-25.000000 25.000000 ylo yhi  
-25.000000 25.000000 zlo zhi  

Masses

	 1  1.0 
	 2  1.0 
	 3  1.0 
	 4  1.0 
	 5  1.0 
	 6  1.0 
	 7  1.0 
	 8  1.0 
	 9  1.0 
	 10 1.0 

Atoms 

	 1 1 1 11.058569377238925 15.901167903444874 -5.329774048025248 0 0 0 
	 2 1 2 10.104369714327628 16.092260813378626 -5.445474104520557 0 0 0 
	 3 1 3 9.15017005141633 16.283353723312377 -5.561174161015865 0 0 0 
	 4 1 4 8.195970388505032 16.474446633246128 -5.676874217511173 0 0 0 
	 5 1 5 7.241770725593735 16.66553954317988 -5.792574274006482 0 0 0 
	 6 1 6 6.287571062682437 16.85663245311363 -5.90827433050179 0 0 0 
	 7 1 7 5.33337139977114 17.04772536304738 -6.023974386997098 0 0 0 
	 8 1 8 4.379171736859843 17.23881827298113 -6.139674443492407 0 0 0 
	 9 1 9 3.4249720739485454 17.429911182914882 -6.255374499987714 0 0 0 
	 10 1 10 2.470772411037247 17.621004092848633 -6.371074556483023 0 0 0 


Bonds 

	 1 1 1 2 
	 2 2 2 3 
	 3 3 3 4 
	 4 4 4 5 
	 5 5 5 6 
	 6 6 6 7 
	 7 7 7 8 
	 8 8 8 9 
	 9 9 9 10 


Angles 

	 1 1 1 2 3 
	 2 2 2 3 4 
	 3 3 3 4 5 
	 4 4 4 5 6 
	 5 5 5 6 7 
	 6 6 6 7 8 
	 7 7 7 8 9 
	 8 8 8 9 10 
