LAMMPS nunchunk data file 

10  atoms          
9  bonds          
8  angles         
0  dihedrals      
0  impropers    

10 atom types     
9  bond types     
8  angle types    
0  dihedral types 
0  improper types 

-5.000000 5.000000 xlo xhi  
-5.000000 5.000000 ylo yhi  
-5.000000 5.000000 zlo zhi  

Masses

	 1  1.0 
	 2  1.0 
	 3  1.0 
	 4  1.0 
	 5  1.0 
	 6  1.0 
	 7  1.0 
	 8  1.0 
	 9  1.0 
	 10 1.0 

Atoms 

	 1 1 1 1.207694809820432 -2.549778911535392 -4.286998522547725 0 0 0 
	 2 1 2 1.479220381939064 -2.515264859294191 -3.345997649071222 0 0 0 
	 3 1 3 1.7507459540576957 -2.48075080705299 -2.4049967755947192 0 0 0 
	 4 1 4 2.0222715261763273 -2.446236754811789 -1.4639959021182163 0 0 0 
	 5 1 5 2.2937970982949594 -2.411722702570588 -0.5229950286417138 0 0 0 
	 6 1 6 2.565322670413591 -2.377208650329387 0.41800584483478964 0 0 0 
	 7 1 7 2.8368482425322226 -2.342694598088186 1.3590067183112922 0 0 0 
	 8 1 8 3.108373814650854 -2.308180545846985 2.300007591787794 0 0 0 
	 9 1 9 3.379899386769486 -2.273666493605784 3.241008465264297 0 0 0 
	 10 1 10 3.651424958888118 -2.239152441364583 4.1820093387408 0 0 0 


Bonds 

	 1 1 1 2 
	 2 2 2 3 
	 3 3 3 4 
	 4 4 4 5 
	 5 5 5 6 
	 6 6 6 7 
	 7 7 7 8 
	 8 8 8 9 
	 9 9 9 10 


Angles 

	 1 1 1 2 3 
	 2 2 2 3 4 
	 3 3 3 4 5 
	 4 4 4 5 6 
	 5 5 5 6 7 
	 6 6 6 7 8 
	 7 7 7 8 9 
	 8 8 8 9 10 
