LAMMPS nunchunk data file 

1000  atoms          
900  bonds          
800  angles         
0  dihedrals      
0  impropers    

10 atom types     
9  bond types     
8  angle types    
0  dihedral types 
0  improper types 

-25.000000 25.000000 xlo xhi  
-25.000000 25.000000 ylo yhi  
-25.000000 25.000000 zlo zhi  

Masses

	 1  1.0 
	 2  1.0 
	 3  1.0 
	 4  1.0 
	 5  1.0 
	 6  1.0 
	 7  1.0 
	 8  1.0 
	 9  1.0 
	 10 1.0 

Atoms 

	 1 1 1 -3.9847473312659143 -2.53591819625501 17.277500025187344 0 0 0 
	 2 1 2 -3.041353219780911 -2.288422694998306 17.181825957263403 0 0 0 
	 3 1 3 -2.0979591082959086 -2.0409271937416027 17.086151889339465 0 0 0 
	 4 1 4 -1.154564996810905 -1.7934316924848983 16.990477821415524 0 0 0 
	 5 1 5 -0.21117088532590245 -1.5459361912281948 16.894803753491583 0 0 0 
	 6 1 6 0.7322232261591011 -1.2984406899714909 16.799129685567646 0 0 0 
	 7 1 7 1.6756173376441041 -1.0509451887147867 16.703455617643705 0 0 0 
	 8 1 8 2.6190114491291063 -0.8034496874580834 16.607781549719764 0 0 0 
	 9 1 9 3.5624055606141094 -0.5559541862013797 16.512107481795827 0 0 0 
	 10 1 10 4.505799672099114 -0.30845868494467554 16.416433413871886 0 0 0 
	 11 2 1 -6.410567258339983 11.45124366623555 21.875251862096796 0 0 0 
	 12 2 2 -5.468825583382517 11.283450562140908 22.088249730317564 0 0 0 
	 13 2 3 -4.527083908425051 11.115657458046268 22.301247598538332 0 0 0 
	 14 2 4 -3.5853422334675855 10.947864353951626 22.514245466759103 0 0 0 
	 15 2 5 -2.6436005585101197 10.780071249856986 22.72724333497987 0 0 0 
	 16 2 6 -1.7018588835526538 10.612278145762344 22.94024120320064 0 0 0 
	 17 2 7 -0.7601172085951884 10.444485041667704 23.15323907142141 0 0 0 
	 18 2 8 0.18162446636227703 10.276691937573062 23.366236939642178 0 0 0 
	 19 2 9 1.1233661413197433 10.10889883347842 23.579234807862946 0 0 0 
	 20 2 10 2.0651078162772087 9.94110572938378 23.792232676083714 0 0 0 
	 21 3 1 -8.341006288720438 7.120305812731792 -2.897306919768383 0 0 0 
	 22 3 2 -7.897821328506506 7.094108820727776 -3.770977800964567 0 0 0 
	 23 3 3 -7.454636368292574 7.0679118287237594 -4.644648682160751 0 0 0 
	 24 3 4 -7.011451408078641 7.041714836719743 -5.518319563356935 0 0 0 
	 25 3 5 -6.568266447864709 7.015517844715727 -6.3919904445531195 0 0 0 
	 26 3 6 -6.125081487650776 6.98932085271171 -7.265661325749305 0 0 0 
	 27 3 7 -5.6818965274368445 6.963123860707694 -8.139332206945488 0 0 0 
	 28 3 8 -5.2387115672229125 6.936926868703678 -9.013003088141671 0 0 0 
	 29 3 9 -4.795526607008981 6.91072987669966 -9.886673969337854 0 0 0 
	 30 3 10 -4.352341646795048 6.884532884695645 -10.76034485053404 0 0 0 
	 31 4 1 -10.413400441935 -3.7230302836921303 24.155863730115346 0 0 0 
	 32 4 2 -10.335660726665198 -4.546232643710608 23.62984622933255 0 0 0 
	 33 4 3 -10.257921011395398 -5.369435003729086 23.103828728549754 0 0 0 
	 34 4 4 -10.180181296125596 -6.192637363747563 22.577811227766958 0 0 0 
	 35 4 5 -10.102441580855794 -7.015839723766041 22.05179372698416 0 0 0 
	 36 4 6 -10.024701865585994 -7.83904208378452 21.525776226201366 0 0 0 
	 37 4 7 -9.946962150316192 -8.662244443802996 20.99975872541857 0 0 0 
	 38 4 8 -9.86922243504639 -9.485446803821473 20.473741224635774 0 0 0 
	 39 4 9 -9.791482719776589 -10.308649163839952 19.947723723852977 0 0 0 
	 40 4 10 -9.713743004506789 -11.13185152385843 19.42170622307018 0 0 0 
	 41 5 1 -12.832079038790411 17.42512545340609 0.9086496325477922 0 0 0 
	 42 5 2 -11.91925187337936 17.06884368407579 0.9231364172324862 0 0 0 
	 43 5 3 -11.006424707968312 16.712561914745493 0.9376232019171802 0 0 0 
	 44 5 4 -10.093597542557262 16.356280145415194 0.9521099866018744 0 0 0 
	 45 5 5 -9.180770377146214 15.999998376084896 0.9665967712865683 0 0 0 
	 46 5 6 -8.267943211735163 15.643716606754598 0.9810835559712621 0 0 0 
	 47 5 7 -7.355116046324115 15.2874348374243 0.9955703406559566 0 0 0 
	 48 5 8 -6.442288880913066 14.931153068094002 1.01005712534065 0 0 0 
	 49 5 9 -5.529461715502015 14.574871298763703 1.0245439100253444 0 0 0 
	 50 5 10 -4.616634550090966 14.218589529433403 1.0390306947100376 0 0 0 
	 51 6 1 -11.56223629761824 -14.794653482637516 -7.890473750198907 0 0 0 
	 52 6 2 -10.782289583354322 -14.364576625746185 -7.481674263805649 0 0 0 
	 53 6 3 -10.002342869090402 -13.934499768854854 -7.072874777412392 0 0 0 
	 54 6 4 -9.222396154826484 -13.504422911963523 -6.6640752910191345 0 0 0 
	 55 6 5 -8.442449440562566 -13.074346055072192 -6.255275804625878 0 0 0 
	 56 6 6 -7.662502726298647 -12.644269198180861 -5.84647631823262 0 0 0 
	 57 6 7 -6.882556012034729 -12.21419234128953 -5.437676831839363 0 0 0 
	 58 6 8 -6.102609297770811 -11.7841154843982 -5.028877345446105 0 0 0 
	 59 6 9 -5.322662583506891 -11.354038627506869 -4.620077859052849 0 0 0 
	 60 6 10 -4.542715869242972 -10.923961770615538 -4.211278372659592 0 0 0 
	 61 7 1 8.756136646245649 -17.561868361546846 -10.777122054289629 0 0 0 
	 62 7 2 8.830678393634088 -17.495860398215928 -11.752051014098077 0 0 0 
	 63 7 3 8.905220141022527 -17.42985243488501 -12.726979973906525 0 0 0 
	 64 7 4 8.979761888410968 -17.363844471554092 -13.701908933714973 0 0 0 
	 65 7 5 9.054303635799407 -17.297836508223174 -14.676837893523421 0 0 0 
	 66 7 6 9.128845383187846 -17.231828544892256 -15.651766853331868 0 0 0 
	 67 7 7 9.203387130576285 -17.165820581561338 -16.626695813140316 0 0 0 
	 68 7 8 9.277928877964724 -17.099812618230423 -17.601624772948764 0 0 0 
	 69 7 9 9.352470625353165 -17.033804654899505 -18.576553732757212 0 0 0 
	 70 7 10 9.427012372741604 -16.967796691568587 -19.55148269256566 0 0 0 
	 71 8 1 -16.113189856133104 11.025626734416088 6.141543473161204 0 0 0 
	 72 8 2 -15.173631952024552 11.298376301383199 6.1984523349175 0 0 0 
	 73 8 3 -14.234074047916 11.571125868350311 6.255361196673795 0 0 0 
	 74 8 4 -13.294516143807446 11.843875435317422 6.312270058430091 0 0 0 
	 75 8 5 -12.354958239698894 12.116625002284533 6.369178920186386 0 0 0 
	 76 8 6 -11.415400335590341 12.389374569251645 6.426087781942683 0 0 0 
	 77 8 7 -10.475842431481787 12.662124136218756 6.4829966436989785 0 0 0 
	 78 8 8 -9.536284527373237 12.934873703185866 6.539905505455273 0 0 0 
	 79 8 9 -8.596726623264683 13.207623270152979 6.59681436721157 0 0 0 
	 80 8 10 -7.657168719156131 13.48037283712009 6.653723228967865 0 0 0 
	 81 9 1 8.09372370160566 20.418177694988305 4.5578616641540055 0 0 0 
	 82 9 2 7.861051497873882 19.48289411328817 4.380355981392099 0 0 0 
	 83 9 3 7.628379294142106 18.54761053158804 4.202850298630193 0 0 0 
	 84 9 4 7.395707090410328 17.61232694988791 4.025344615868287 0 0 0 
	 85 9 5 7.163034886678552 16.677043368187775 3.8478389331063805 0 0 0 
	 86 9 6 6.930362682946774 15.741759786487643 3.670333250344474 0 0 0 
	 87 9 7 6.697690479214997 14.806476204787511 3.4928275675825673 0 0 0 
	 88 9 8 6.465018275483221 13.87119262308738 3.3153218848206616 0 0 0 
	 89 9 9 6.232346071751444 12.935909041387246 3.1378162020587554 0 0 0 
	 90 9 10 5.999673868019666 12.000625459687114 2.9603105192968484 0 0 0 
	 91 10 1 -12.214331126491684 -18.158128888585168 1.4625221952072998 0 0 0 
	 92 10 2 -11.430574376915011 -18.45649012547888 0.9554660545164876 0 0 0 
	 93 10 3 -10.646817627338336 -18.754851362372595 0.4484099138256754 0 0 0 
	 94 10 4 -9.863060877761662 -19.053212599266306 -0.0586462268651371 0 0 0 
	 95 10 5 -9.079304128184988 -19.35157383616002 -0.5657023675559489 0 0 0 
	 96 10 6 -8.295547378608315 -19.649935073053733 -1.0727585082467612 0 0 0 
	 97 10 7 -7.5117906290316405 -19.948296309947448 -1.579814648937574 0 0 0 
	 98 10 8 -6.7280338794549674 -20.24665754684116 -2.086870789628386 0 0 0 
	 99 10 9 -5.944277129878293 -20.545018783734875 -2.5939269303191974 0 0 0 
	 100 10 10 -5.1605203803016195 -20.843380020628587 -3.1009830710100097 0 0 0 
	 101 11 1 3.5950925342715543 -15.444001493555938 24.198806553088048 0 0 0 
	 102 11 2 3.1417724587161957 -16.111131936408842 23.642175722718967 0 0 0 
	 103 11 3 2.688452383160837 -16.778262379261747 23.085544892349887 0 0 0 
	 104 11 4 2.235132307605478 -17.44539282211465 22.528914061980807 0 0 0 
	 105 11 5 1.7818122320501195 -18.112523264967553 21.972283231611726 0 0 0 
	 106 11 6 1.3284921564947605 -18.779653707820458 21.415652401242646 0 0 0 
	 107 11 7 0.8751720809394024 -19.446784150673363 20.859021570873566 0 0 0 
	 108 11 8 0.4218520053840433 -20.113914593526268 20.302390740504485 0 0 0 
	 109 11 9 -0.031468070171315254 -20.78104503637917 19.745759910135405 0 0 0 
	 110 11 10 -0.4847881457266743 -21.448175479232077 19.189129079766325 0 0 0 
	 111 12 1 -14.062857449863397 6.2969840698931465 3.182847252582144 0 0 0 
	 112 12 2 -13.612194824166744 5.843290991713783 3.925454678219898 0 0 0 
	 113 12 3 -13.161532198470091 5.389597913534418 4.668062103857651 0 0 0 
	 114 12 4 -12.710869572773438 4.935904835355053 5.410669529495406 0 0 0 
	 115 12 5 -12.260206947076785 4.48221175717569 6.153276955133159 0 0 0 
	 116 12 6 -11.809544321380134 4.028518678996326 6.895884380770913 0 0 0 
	 117 12 7 -11.358881695683479 3.574825600816961 7.638491806408668 0 0 0 
	 118 12 8 -10.908219069986828 3.1211325226375974 8.38109923204642 0 0 0 
	 119 12 9 -10.457556444290175 2.667439444458233 9.123706657684174 0 0 0 
	 120 12 10 -10.006893818593522 2.213746366278868 9.866314083321928 0 0 0 
	 121 13 1 -21.202257329602208 10.722885876195598 -10.125978908571598 0 0 0 
	 122 13 2 -20.670715520833262 10.525810697971458 -9.326588716200838 0 0 0 
	 123 13 3 -20.139173712064313 10.32873551974732 -8.52719852383008 0 0 0 
	 124 13 4 -19.607631903295367 10.131660341523181 -7.72780833145932 0 0 0 
	 125 13 5 -19.076090094526418 9.934585163299044 -6.92841813908856 0 0 0 
	 126 13 6 -18.54454828575747 9.737509985074905 -6.129027946717801 0 0 0 
	 127 13 7 -18.013006476988526 9.540434806850765 -5.329637754347042 0 0 0 
	 128 13 8 -17.481464668219576 9.343359628626628 -4.5302475619762825 0 0 0 
	 129 13 9 -16.94992285945063 9.146284450402488 -3.7308573696055216 0 0 0 
	 130 13 10 -16.41838105068168 8.94920927217835 -2.9314671772347616 0 0 0 
	 131 14 1 16.308141087320127 19.785252275160442 23.184546649252674 0 0 0 
	 132 14 2 15.401160363260356 20.151333506141565 23.123142264170166 0 0 0 
	 133 14 3 14.494179639200587 20.517414737122685 23.06173787908766 0 0 0 
	 134 14 4 13.587198915140815 20.88349596810381 23.000333494005154 0 0 0 
	 135 14 5 12.680218191081046 21.249577199084932 22.938929108922647 0 0 0 
	 136 14 6 11.773237467021275 21.615658430066052 22.87752472384014 0 0 0 
	 137 14 7 10.866256742961504 21.981739661047175 22.81612033875763 0 0 0 
	 138 14 8 9.959276018901736 22.347820892028295 22.754715953675127 0 0 0 
	 139 14 9 9.052295294841965 22.71390212300942 22.69331156859262 0 0 0 
	 140 14 10 8.145314570782194 23.079983353990542 22.631907183510112 0 0 0 
	 141 15 1 -5.944529506187718 23.47414553709838 -14.999821937225338 0 0 0 
	 142 15 2 -5.2045189715426385 23.206142684550475 -14.415905094138507 0 0 0 
	 143 15 3 -4.4645084368975585 22.938139832002573 -13.831988251051678 0 0 0 
	 144 15 4 -3.7244979022524793 22.670136979454668 -13.248071407964847 0 0 0 
	 145 15 5 -2.9844873676073997 22.402134126906766 -12.664154564878016 0 0 0 
	 146 15 6 -2.24447683296232 22.13413127435886 -12.080237721791185 0 0 0 
	 147 15 7 -1.504466298317241 21.866128421810956 -11.496320878704356 0 0 0 
	 148 15 8 -0.7644557636721618 21.598125569263054 -10.912404035617525 0 0 0 
	 149 15 9 -0.024445229027081794 21.33012271671515 -10.328487192530694 0 0 0 
	 150 15 10 0.7155653056179974 21.062119864167247 -9.744570349443865 0 0 0 
	 151 16 1 -15.741429671010405 -13.447388804865634 5.826430737848931 0 0 0 
	 152 16 2 -16.188367466306765 -12.959385430242527 6.54927187772137 0 0 0 
	 153 16 3 -16.635305261603126 -12.47138205561942 7.272113017593809 0 0 0 
	 154 16 4 -17.08224305689949 -11.983378680996314 7.994954157466249 0 0 0 
	 155 16 5 -17.52918085219585 -11.495375306373207 8.717795297338688 0 0 0 
	 156 16 6 -17.97611864749221 -11.0073719317501 9.440636437211129 0 0 0 
	 157 16 7 -18.42305644278857 -10.519368557126993 10.163477577083567 0 0 0 
	 158 16 8 -18.869994238084935 -10.031365182503887 10.886318716956005 0 0 0 
	 159 16 9 -19.316932033381295 -9.54336180788078 11.609159856828445 0 0 0 
	 160 16 10 -19.763869828677656 -9.055358433257673 12.332000996700884 0 0 0 
	 161 17 1 -11.22662093386338 9.902805762336692 -9.84009050081654 0 0 0 
	 162 17 2 -12.143869445504228 9.698981830815214 -10.118498426048166 0 0 0 
	 163 17 3 -13.061117957145074 9.495157899293735 -10.396906351279792 0 0 0 
	 164 17 4 -13.978366468785921 9.291333967772257 -10.675314276511417 0 0 0 
	 165 17 5 -14.895614980426767 9.087510036250777 -10.953722201743043 0 0 0 
	 166 17 6 -15.812863492067615 8.883686104729298 -11.232130126974669 0 0 0 
	 167 17 7 -16.730112003708463 8.67986217320782 -11.510538052206295 0 0 0 
	 168 17 8 -17.64736051534931 8.476038241686341 -11.788945977437919 0 0 0 
	 169 17 9 -18.564609026990155 8.272214310164863 -12.067353902669545 0 0 0 
	 170 17 10 -19.481857538631004 8.068390378643384 -12.345761827901171 0 0 0 
	 171 18 1 -8.892206787748858 9.277157520820756 -0.05705171383066365 0 0 0 
	 172 18 2 -9.652408215728444 9.709287013136471 -0.4994970672572292 0 0 0 
	 173 18 3 -10.412609643708032 10.141416505452188 -0.9419424206837947 0 0 0 
	 174 18 4 -11.172811071687619 10.573545997767903 -1.3843877741103607 0 0 0 
	 175 18 5 -11.933012499667207 11.00567549008362 -1.8268331275369258 0 0 0 
	 176 18 6 -12.693213927646793 11.437804982399335 -2.269278480963492 0 0 0 
	 177 18 7 -13.45341535562638 11.869934474715052 -2.7117238343900576 0 0 0 
	 178 18 8 -14.213616783605968 12.302063967030767 -3.154169187816623 0 0 0 
	 179 18 9 -14.973818211585554 12.734193459346482 -3.596614541243188 0 0 0 
	 180 18 10 -15.73401963956514 13.166322951662199 -4.039059894669754 0 0 0 
	 181 19 1 -24.093973855362442 -5.248277539921969 2.4531300283516746 0 0 0 
	 182 19 2 -23.816977657027966 -6.097113269829515 2.8570495868538233 0 0 0 
	 183 19 3 -23.53998145869349 -6.945948999737061 3.260969145355972 0 0 0 
	 184 19 4 -23.26298526035901 -7.794784729644607 3.664888703858121 0 0 0 
	 185 19 5 -22.985989062024533 -8.643620459552153 4.068808262360269 0 0 0 
	 186 19 6 -22.708992863690057 -9.492456189459698 4.472727820862419 0 0 0 
	 187 19 7 -22.43199666535558 -10.341291919367244 4.8766473793645675 0 0 0 
	 188 19 8 -22.155000467021104 -11.190127649274789 5.280566937866716 0 0 0 
	 189 19 9 -21.878004268686624 -12.038963379182334 5.684486496368865 0 0 0 
	 190 19 10 -21.601008070352147 -12.887799109089881 6.088406054871015 0 0 0 
	 191 20 1 20.049749259155174 9.403450381156098 -20.72977926702755 0 0 0 
	 192 20 2 20.479445901608656 8.616779238934837 -21.125897064482423 0 0 0 
	 193 20 3 20.90914254406214 7.830108096713577 -21.522014861937297 0 0 0 
	 194 20 4 21.33883918651562 7.043436954492315 -21.91813265939217 0 0 0 
	 195 20 5 21.768535828969103 6.2567658122710545 -22.314250456847045 0 0 0 
	 196 20 6 22.198232471422585 5.470094670049793 -22.71036825430192 0 0 0 
	 197 20 7 22.62792911387607 4.683423527828532 -23.106486051756793 0 0 0 
	 198 20 8 23.05762575632955 3.8967523856072717 -23.502603849211667 0 0 0 
	 199 20 9 23.487322398783036 3.110081243386011 -23.898721646666544 0 0 0 
	 200 20 10 23.917019041236518 2.3234101011647486 -24.29483944412142 0 0 0 
	 201 21 1 20.845194073946665 0.4361877555657312 4.763923055680408 0 0 0 
	 202 21 2 20.919671273919512 1.0064202880470132 3.9703942247081567 0 0 0 
	 203 21 3 20.99414847389236 1.5766528205282955 3.1768653937359055 0 0 0 
	 204 21 4 21.06862567386521 2.1468853530095777 2.3833365627636542 0 0 0 
	 205 21 5 21.143102873838057 2.7171178854908598 1.589807731791403 0 0 0 
	 206 21 6 21.217580073810904 3.2873504179721422 0.7962789008191518 0 0 0 
	 207 21 7 21.29205727378375 3.8575829504534243 0.002750069846900516 0 0 0 
	 208 21 8 21.3665344737566 4.427815482934706 -0.7907787611253507 0 0 0 
	 209 21 9 21.44101167372945 4.998048015415988 -1.584307592097602 0 0 0 
	 210 21 10 21.515488873702296 5.568280547897271 -2.377836423069853 0 0 0 
	 211 22 1 -15.342870658483927 21.413564098120684 8.524033663064024 0 0 0 
	 212 22 2 -15.153016736214195 20.464803750767086 8.368440310094577 0 0 0 
	 213 22 3 -14.963162813944463 19.516043403413484 8.212846957125128 0 0 0 
	 214 22 4 -14.773308891674732 18.567283056059885 8.057253604155681 0 0 0 
	 215 22 5 -14.583454969405 17.618522708706283 7.901660251186233 0 0 0 
	 216 22 6 -14.393601047135268 16.669762361352685 7.746066898216785 0 0 0 
	 217 22 7 -14.203747124865538 15.721002013999085 7.590473545247337 0 0 0 
	 218 22 8 -14.013893202595806 14.772241666645485 7.434880192277889 0 0 0 
	 219 22 9 -13.824039280326074 13.823481319291885 7.279286839308442 0 0 0 
	 220 22 10 -13.634185358056342 12.874720971938284 7.123693486338994 0 0 0 
	 221 23 1 14.288377757099237 -1.1473764758203515 21.490101893871277 0 0 0 
	 222 23 2 14.886762975163222 -1.4252351240857015 20.765443558939104 0 0 0 
	 223 23 3 15.48514819322721 -1.7030937723510489 20.040785224006928 0 0 0 
	 224 23 4 16.083533411291192 -1.980952420616397 19.316126889074756 0 0 0 
	 225 23 5 16.68191862935518 -2.258811068881748 18.591468554142583 0 0 0 
	 226 23 6 17.280303847419162 -2.536669717147097 17.86681021921041 0 0 0 
	 227 23 7 17.87868906548315 -2.8145283654124444 17.142151884278235 0 0 0 
	 228 23 8 18.47707428354714 -3.0923870136777936 16.417493549346062 0 0 0 
	 229 23 9 19.07545950161112 -3.3702456619431445 15.69283521441389 0 0 0 
	 230 23 10 19.673844719675106 -3.648104310208492 14.968176879481717 0 0 0 
	 231 24 1 -12.30314268064273 6.611267483854921 -23.9575478046709 0 0 0 
	 232 24 2 -12.984405616074215 6.471145139106868 -23.267151873838753 0 0 0 
	 233 24 3 -13.665668551505698 6.331022794358815 -22.576755943006606 0 0 0 
	 234 24 4 -14.346931486937184 6.190900449610762 -21.88636001217446 0 0 0 
	 235 24 5 -15.028194422368667 6.050778104862709 -21.195964081342314 0 0 0 
	 236 24 6 -15.70945735780015 5.910655760114656 -20.505568150510168 0 0 0 
	 237 24 7 -16.390720293231634 5.770533415366603 -19.815172219678022 0 0 0 
	 238 24 8 -17.071983228663118 5.63041107061855 -19.124776288845876 0 0 0 
	 239 24 9 -17.7532461640946 5.490288725870496 -18.43438035801373 0 0 0 
	 240 24 10 -18.434509099526085 5.350166381122444 -17.743984427181584 0 0 0 
	 241 25 1 3.551060963742414 -7.941740298534411 0.01397223404853154 0 0 0 
	 242 25 2 4.469355350888586 -8.200217679665203 -0.2103598010681779 0 0 0 
	 243 25 3 5.3876497380347566 -8.458695060795995 -0.4346918361848873 0 0 0 
	 244 25 4 6.305944125180929 -8.717172441926788 -0.6590238713015968 0 0 0 
	 245 25 5 7.2242385123271 -8.97564982305758 -0.8833559064183062 0 0 0 
	 246 25 6 8.142532899473272 -9.234127204188372 -1.1076879415350158 0 0 0 
	 247 25 7 9.060827286619443 -9.492604585319164 -1.3320199766517251 0 0 0 
	 248 25 8 9.979121673765613 -9.751081966449956 -1.5563520117684344 0 0 0 
	 249 25 9 10.897416060911786 -10.009559347580748 -1.780684046885144 0 0 0 
	 250 25 10 11.815710448057956 -10.268036728711541 -2.0050160820018537 0 0 0 
	 251 26 1 -16.00932759963747 13.648673473803374 -9.381196939418102 0 0 0 
	 252 26 2 -15.467043791136547 14.184151944174628 -9.997306571550725 0 0 0 
	 253 26 3 -14.924759982635624 14.719630414545883 -10.613416203683348 0 0 0 
	 254 26 4 -14.382476174134702 15.255108884917137 -11.229525835815974 0 0 0 
	 255 26 5 -13.84019236563378 15.790587355288391 -11.845635467948597 0 0 0 
	 256 26 6 -13.297908557132857 16.326065825659644 -12.46174510008122 0 0 0 
	 257 26 7 -12.755624748631934 16.8615442960309 -13.077854732213845 0 0 0 
	 258 26 8 -12.213340940131012 17.397022766402152 -13.693964364346469 0 0 0 
	 259 26 9 -11.67105713163009 17.932501236773405 -14.31007399647909 0 0 0 
	 260 26 10 -11.128773323129167 18.46797970714466 -14.926183628611716 0 0 0 
	 261 27 1 17.489794283632015 8.00012585234136 3.5888968424343304 0 0 0 
	 262 27 2 17.333715608666402 8.57219538124083 2.8086559172543466 0 0 0 
	 263 27 3 17.177636933700786 9.1442649101403 2.028414992074363 0 0 0 
	 264 27 4 17.021558258735173 9.71633443903977 1.2481740668943795 0 0 0 
	 265 27 5 16.86547958376956 10.288403967939239 0.4679331417143957 0 0 0 
	 266 27 6 16.709400908803943 10.86047349683871 -0.3123077834655885 0 0 0 
	 267 27 7 16.55332223383833 11.432543025738179 -1.0925487086455714 0 0 0 
	 268 27 8 16.397243558872717 12.00461255463765 -1.8727896338255547 0 0 0 
	 269 27 9 16.241164883907103 12.576682083537118 -2.653030559005539 0 0 0 
	 270 27 10 16.085086208941487 13.14875161243659 -3.4332714841855223 0 0 0 
	 271 28 1 -11.55156132695248 -24.16622984987869 -2.6942859124697014 0 0 0 
	 272 28 2 -11.412476214432585 -23.815025819000226 -1.7900121374601368 0 0 0 
	 273 28 3 -11.27339110191269 -23.463821788121766 -0.8857383624505721 0 0 0 
	 274 28 4 -11.134305989392795 -23.112617757243303 0.018535412558992714 0 0 0 
	 275 28 5 -10.9952208768729 -22.761413726364843 0.9228091875685571 0 0 0 
	 276 28 6 -10.856135764353004 -22.41020969548638 1.827082962578122 0 0 0 
	 277 28 7 -10.717050651833109 -22.05900566460792 2.731356737587687 0 0 0 
	 278 28 8 -10.577965539313213 -21.707801633729456 3.63563051259725 0 0 0 
	 279 28 9 -10.438880426793318 -21.356597602850997 4.539904287606816 0 0 0 
	 280 28 10 -10.299795314273423 -21.005393571972533 5.44417806261638 0 0 0 
	 281 29 1 -19.630855292341053 -11.128502473318436 6.366691706587535 0 0 0 
	 282 29 2 -19.223741624380317 -10.735117246596788 7.166633282427116 0 0 0 
	 283 29 3 -18.81662795641958 -10.34173201987514 7.966574858266698 0 0 0 
	 284 29 4 -18.409514288458844 -9.948346793153492 8.76651643410628 0 0 0 
	 285 29 5 -18.002400620498108 -9.554961566431846 9.566458009945862 0 0 0 
	 286 29 6 -17.59528695253737 -9.161576339710198 10.366399585785443 0 0 0 
	 287 29 7 -17.188173284576635 -8.76819111298855 11.166341161625024 0 0 0 
	 288 29 8 -16.781059616615895 -8.374805886266902 11.966282737464606 0 0 0 
	 289 29 9 -16.37394594865516 -7.981420659545254 12.766224313304187 0 0 0 
	 290 29 10 -15.966832280694423 -7.588035432823606 13.566165889143772 0 0 0 
	 291 30 1 -3.924100294708616 -12.510991836612206 -20.423697872970386 0 0 0 
	 292 30 2 -4.656941870681724 -13.112383437716685 -20.672035076478522 0 0 0 
	 293 30 3 -5.389783446654831 -13.713775038821167 -20.92037227998666 0 0 0 
	 294 30 4 -6.122625022627938 -14.315166639925646 -21.168709483494798 0 0 0 
	 295 30 5 -6.855466598601046 -14.916558241030126 -21.417046687002934 0 0 0 
	 296 30 6 -7.588308174574154 -15.517949842134605 -21.66538389051107 0 0 0 
	 297 30 7 -8.32114975054726 -16.119341443239087 -21.913721094019206 0 0 0 
	 298 30 8 -9.053991326520368 -16.720733044343568 -22.16205829752734 0 0 0 
	 299 30 9 -9.786832902493476 -17.322124645448046 -22.410395501035477 0 0 0 
	 300 30 10 -10.519674478466584 -17.923516246552527 -22.658732704543617 0 0 0 
	 301 31 1 10.120787788706098 -21.148933794432377 9.022459417744667 0 0 0 
	 302 31 2 10.630559030002825 -20.745049987476612 8.28937609913367 0 0 0 
	 303 31 3 11.140330271299554 -20.34116618052085 7.556292780522673 0 0 0 
	 304 31 4 11.650101512596283 -19.937282373565086 6.823209461911676 0 0 0 
	 305 31 5 12.15987275389301 -19.53339856660932 6.0901261433006795 0 0 0 
	 306 31 6 12.66964399518974 -19.12951475965356 5.357042824689682 0 0 0 
	 307 31 7 13.179415236486467 -18.725630952697795 4.623959506078686 0 0 0 
	 308 31 8 13.689186477783196 -18.321747145742034 3.890876187467689 0 0 0 
	 309 31 9 14.198957719079923 -17.91786333878627 3.157792868856692 0 0 0 
	 310 31 10 14.708728960376652 -17.513979531830504 2.4247095502456943 0 0 0 
	 311 32 1 -16.86324452073855 10.656312292326902 -0.04709868572709275 0 0 0 
	 312 32 2 -16.507312560991938 11.268916526949978 0.6299747901622016 0 0 0 
	 313 32 3 -16.151380601245325 11.881520761573054 1.307048266051496 0 0 0 
	 314 32 4 -15.79544864149871 12.49412499619613 1.98412174194079 0 0 0 
	 315 32 5 -15.439516681752098 13.106729230819205 2.661195217830085 0 0 0 
	 316 32 6 -15.083584722005483 13.719333465442281 3.338268693719378 0 0 0 
	 317 32 7 -14.72765276225887 14.331937700065357 4.015342169608672 0 0 0 
	 318 32 8 -14.371720802512257 14.94454193468843 4.692415645497967 0 0 0 
	 319 32 9 -14.015788842765645 15.557146169311508 5.369489121387262 0 0 0 
	 320 32 10 -13.65985688301903 16.169750403934582 6.046562597276555 0 0 0 
	 321 33 1 -14.136806469908736 15.17283807319929 18.46886999556047 0 0 0 
	 322 33 2 -13.986179283121563 14.445746794558376 19.108439947266227 0 0 0 
	 323 33 3 -13.83555209633439 13.718655515917462 19.74800989897198 0 0 0 
	 324 33 4 -13.684924909547217 12.991564237276545 20.387579850677735 0 0 0 
	 325 33 5 -13.534297722760044 12.264472958635631 21.02714980238349 0 0 0 
	 326 33 6 -13.38367053597287 11.537381679994716 21.666719754089243 0 0 0 
	 327 33 7 -13.233043349185698 10.8102904013538 22.306289705795 0 0 0 
	 328 33 8 -13.082416162398523 10.083199122712886 22.945859657500755 0 0 0 
	 329 33 9 -12.93178897561135 9.356107844071971 23.585429609206507 0 0 0 
	 330 33 10 -12.781161788824178 8.629016565431055 24.224999560912263 0 0 0 
	 331 34 1 5.185285174180343 15.234966442599907 16.430583981567004 0 0 0 
	 332 34 2 4.560966606825385 15.381251297566617 17.171682536189277 0 0 0 
	 333 34 3 3.936648039470427 15.527536152533328 17.91278109081155 0 0 0 
	 334 34 4 3.3123294721154686 15.673821007500038 18.653879645433822 0 0 0 
	 335 34 5 2.6880109047605103 15.820105862466747 19.394978200056094 0 0 0 
	 336 34 6 2.063692337405552 15.966390717433457 20.136076754678363 0 0 0 
	 337 34 7 1.4393737700505937 16.112675572400168 20.877175309300636 0 0 0 
	 338 34 8 0.8150552026956355 16.258960427366876 21.61827386392291 0 0 0 
	 339 34 9 0.1907366353406772 16.40524528233359 22.35937241854518 0 0 0 
	 340 34 10 -0.4335819320142811 16.551530137300297 23.100470973167454 0 0 0 
	 341 35 1 9.23184684762735 6.295238416975363 -20.473973743165413 0 0 0 
	 342 35 2 9.746988249288194 7.010774903776819 -20.046145655785995 0 0 0 
	 343 35 3 10.262129650949035 7.726311390578276 -19.618317568406574 0 0 0 
	 344 35 4 10.777271052609878 8.441847877379733 -19.190489481027157 0 0 0 
	 345 35 5 11.292412454270721 9.157384364181189 -18.762661393647736 0 0 0 
	 346 35 6 11.807553855931562 9.872920850982645 -18.33483330626832 0 0 0 
	 347 35 7 12.322695257592404 10.588457337784103 -17.907005218888898 0 0 0 
	 348 35 8 12.837836659253247 11.303993824585557 -17.47917713150948 0 0 0 
	 349 35 9 13.35297806091409 12.019530311387015 -17.051349044130063 0 0 0 
	 350 35 10 13.868119462574931 12.735066798188472 -16.623520956750642 0 0 0 
	 351 36 1 7.534723129222465 5.412588089359671 9.150584194824935 0 0 0 
	 352 36 2 8.009537988443999 6.1916251973933845 9.508427783238789 0 0 0 
	 353 36 3 8.484352847665534 6.970662305427098 9.866271371652642 0 0 0 
	 354 36 4 8.959167706887067 7.74969941346081 10.224114960066496 0 0 0 
	 355 36 5 9.4339825661086 8.528736521494523 10.58195854848035 0 0 0 
	 356 36 6 9.908797425330135 9.307773629528237 10.939802136894203 0 0 0 
	 357 36 7 10.383612284551669 10.08681073756195 11.297645725308056 0 0 0 
	 358 36 8 10.858427143773202 10.865847845595662 11.65548931372191 0 0 0 
	 359 36 9 11.333242002994737 11.644884953629376 12.013332902135764 0 0 0 
	 360 36 10 11.80805686221627 12.423922061663088 12.371176490549617 0 0 0 
	 361 37 1 19.351330070618666 8.680885732506487 18.179207942957547 0 0 0 
	 362 37 2 19.45433385269035 8.839497529117686 17.21762980320254 0 0 0 
	 363 37 3 19.557337634762035 8.998109325728883 16.256051663447536 0 0 0 
	 364 37 4 19.66034141683372 9.156721122340082 15.294473523692531 0 0 0 
	 365 37 5 19.76334519890541 9.315332918951281 14.332895383937524 0 0 0 
	 366 37 6 19.866348980977094 9.47394471556248 13.371317244182517 0 0 0 
	 367 37 7 19.96935276304878 9.632556512173677 12.409739104427514 0 0 0 
	 368 37 8 20.072356545120464 9.791168308784876 11.448160964672509 0 0 0 
	 369 37 9 20.17536032719215 9.949780105396075 10.486582824917502 0 0 0 
	 370 37 10 20.278364109263833 10.108391902007273 9.525004685162497 0 0 0 
	 371 38 1 -22.520319040777032 -7.619361072788328 17.789447031595856 0 0 0 
	 372 38 2 -22.47789682401824 -7.943178937624633 16.865465242847762 0 0 0 
	 373 38 3 -22.43547460725945 -8.266996802460937 15.941483454099668 0 0 0 
	 374 38 4 -22.393052390500664 -8.590814667297241 15.017501665351574 0 0 0 
	 375 38 5 -22.350630173741873 -8.914632532133545 14.09351987660348 0 0 0 
	 376 38 6 -22.308207956983082 -9.23845039696985 13.169538087855386 0 0 0 
	 377 38 7 -22.265785740224292 -9.562268261806155 12.245556299107292 0 0 0 
	 378 38 8 -22.223363523465505 -9.886086126642459 11.3215745103592 0 0 0 
	 379 38 9 -22.180941306706714 -10.209903991478765 10.397592721611105 0 0 0 
	 380 38 10 -22.138519089947923 -10.533721856315069 9.47361093286301 0 0 0 
	 381 39 1 -13.695828735380712 13.934929792788692 16.91509745061075 0 0 0 
	 382 39 2 -13.586575613026419 13.013916907558762 17.2316397392489 0 0 0 
	 383 39 3 -13.477322490672126 12.092904022328833 17.548182027887055 0 0 0 
	 384 39 4 -13.368069368317833 11.171891137098903 17.864724316525205 0 0 0 
	 385 39 5 -13.25881624596354 10.250878251868974 18.181266605163355 0 0 0 
	 386 39 6 -13.149563123609248 9.329865366639044 18.49780889380151 0 0 0 
	 387 39 7 -13.040310001254955 8.408852481409115 18.81435118243966 0 0 0 
	 388 39 8 -12.931056878900662 7.487839596179185 19.130893471077812 0 0 0 
	 389 39 9 -12.82180375654637 6.566826710949256 19.44743575971596 0 0 0 
	 390 39 10 -12.712550634192077 5.645813825719326 19.76397804835411 0 0 0 
	 391 40 1 6.8607574990073195 -13.790050931393932 -10.223208288929857 0 0 0 
	 392 40 2 6.391678763786053 -12.944897063498487 -10.384701569733075 0 0 0 
	 393 40 3 5.922600028564786 -12.099743195603043 -10.546194850536292 0 0 0 
	 394 40 4 5.453521293343519 -11.254589327707599 -10.707688131339511 0 0 0 
	 395 40 5 4.984442558122252 -10.409435459812155 -10.869181412142728 0 0 0 
	 396 40 6 4.515363822900985 -9.56428159191671 -11.030674692945945 0 0 0 