LAMMPS (3 Mar 2020)
OMP_NUM_THREADS environment is not set. Defaulting to 1 thread. (../comm.cpp:94)
  using 1 OpenMP thread(s) per MPI task
#SETUP
# Runs on the first loop only
shell del *.dump     # delete all dump files before first run CAREFUL WITH THIS
shell del restart.time*     # delete all current restart files before first run
shell lmp_serial -in in.run_setup     # first run of file, generate first restart file

reset_timestep 0

#VARIABLES
variable N         equal  1000 #MUST BE SAME AS SETUP FILE FOR PHASEPLOT
variable len       equal  15  #MUST BE SAME AS SETUP FILE FOR PHASEPLOT
variable T         equal  0.5
variable t_step    equal  0.005 #originally 0.005
variable mix_steps index  50000 50000 50000 50000 50000 50000
variable mix_tau   equal  ${t_step}*${mix_steps}
variable mix_tau   equal  0.005*${mix_steps}
variable mix_tau   equal  0.005*50000
variable run_steps equal  2000000 # steps to run simulation in order to reach steady state
variable run_tau   equal  ${t_step}*${run_steps} # this is the time in LJ units
variable run_tau   equal  0.005*${run_steps} 
variable run_tau   equal  0.005*2000000 
#1000 particles averages 35,000 steps per minute

#LOOP START
label loop  #start loop from here
read_restart restart.time*
  restoring atom style molecular from restart
  orthogonal box = (-50 -50 -50) to (50 50 50)
  1 by 1 by 1 MPI processor grid
  restoring pair style lj/cut from restart
  restoring bond style harmonic from restart
  restoring angle style harmonic from restart
  15000 atoms
  14000 bonds
  13000 angles
  2 = max # of 1-2 neighbors
  2 = max # of 1-3 neighbors
  4 = max # of 1-4 neighbors
  6 = max # of special neighbors
  special bonds CPU = 0.0219421 secs
  read_restart CPU = 0.0643599 secs
# this reads in latest restart file, * is wildcard for timestep


# THERMAL
timestep ${t_step}
timestep 0.005
thermo   100
thermo_style custom step time temp press pe ke etotal vol
thermo_modify norm no


# DUMP OUTPUT
dump  1  all custom 25000 output_T_${T}_time_*.dump id mol type x y z vx vy vz
dump  1  all custom 25000 output_T_0.5_time_*.dump id mol type x y z vx vy vz
# dumps all positions etc every N  steps
dump_modify 1 sort id

# FIX
fix 2 all nph iso ${T} ${T} 100   #changed from T = 0.5 to match variable T
fix 2 all nph iso 0.5 ${T} 100   
fix 2 all nph iso 0.5 0.5 100   
fix 3 all langevin ${T} ${T} 1 123456 #as above
fix 3 all langevin 0.5 ${T} 1 123456 
fix 3 all langevin 0.5 0.5 1 123456 
run ${mix_steps}
run 50000
Neighbor list info ...
  update every 1 steps, delay 10 steps, check yes
  max neighbors/atom: 2000, page size: 100000
  master list distance cutoff = 1.42
  ghost atom cutoff = 1.9
  binsize = 0.71, bins = 141 141 141
  1 neighbor lists, perpetual/occasional/extra = 1 0 0
  (1) pair lj/cut, perpetual
      attributes: half, newton on
      pair build: half/bin/newton
      stencil: half/bin/3d/newton
      bin: standard
Per MPI rank memory allocation (min/avg/max) = 23.01 | 23.01 | 23.01 Mbytes
Step Time Temp Press PotEng KinEng TotEng Volume 
       0            0   0.49811761 0.0012093956    68761.488    11206.899    79968.387 1000000 
     100          0.5    1.2023758  0.014975678    30205.264    27051.653    57256.917    997484.45 
     200            1   0.93621815 -0.0045578307     21779.18    21063.504    42842.684    990397.86 
     300          1.5   0.72632818 -0.011642555    18746.097    16341.295    35087.391    981232.49 
     400            2   0.68549567 0.00039233124    14921.491    15422.624    30344.115    972886.03 
     500          2.5   0.59946404 0.0071067057    13596.205    13487.042    27083.247    965137.07 
     600            3   0.56220252 0.0062753471    12647.738    12648.713    25296.451    957227.26 
     700          3.5   0.54206664  0.003165057    11934.232    12195.686    24129.918    949454.83 
     800            4   0.51899185 -0.0010078993    11774.767    11676.538    23451.305    942233.43 
     900          4.5   0.51476805 -0.0019205378    11486.368    11581.509    23067.877    935526.69 
    1000            5    0.5027691 0.0017318504    11443.763    11311.551    22755.314    929132.65 
    1100          5.5    0.5058481 0.0023304634    11208.235    11380.823    22589.059    922929.67 
    1200            6   0.50629514 0.00075161529    11217.604    11390.881    22608.485    916874.24 
    1300          6.5   0.50797266 0.00094149697    11249.283    11428.623    22677.906    910950.07 
    1400            7   0.50309714 0.00045308873    11208.144    11318.931    22527.075    905149.54 
    1500          7.5   0.50139018 0.0011806877    11247.741    11280.527    22528.268    899463.15 
    1600            8   0.50071373 0.00073280179     11163.64    11265.308    22428.948    893881.89 
    1700          8.5    0.5001168  0.001093965    11170.063    11251.878    22421.941    888394.36 
    1800            9   0.50223339 0.00034360769     11194.48    11299.498    22493.978    882997.31 
    1900          9.5   0.50785309 0.00064564386    11248.684    11425.933    22674.617    877684.84 
    2000           10   0.50152126 0.00089898324    11226.866    11283.476    22510.342    872454.69 
    2100         10.5   0.49719807 0.0025464279    11158.194    11186.211    22344.405    867301.86 
    2200           11   0.49397622 0.0023844909    11129.612    11113.724    22243.336    862222.97 
    2300         11.5    0.4997237 0.00069653099     11151.32    11243.034    22394.354    857214.63 
    2400           12   0.49397015 0.0019764851    11281.529    11113.587    22395.116    852273.84 
    2500         12.5   0.49917906 0.0023844923      11153.3     11230.78     22384.08    847400.18 
    2600           13   0.50212064 0.0012029124    11038.966    11296.961    22335.927    842591.21 
    2700         13.5    0.4999911  0.001781754    11120.834     11249.05    22369.884    837842.15 
    2800           14   0.49489249 0.0012955571    11324.224    11134.339    22458.562    833152.29 
    2900         14.5    0.5042882 0.0014371886    11238.899    11345.728    22584.627     828521.8 
    3000           15   0.50204376 0.0016210773    11198.999    11295.231     22494.23    823946.76 
    3100         15.5    0.5034255 0.0012222958    11079.142    11326.319    22405.461    819426.08 
    3200           16   0.50565947  0.001385647    11192.231     11376.58     22568.81    814957.67 
    3300         16.5   0.50194238 0.0015460852     11105.56    11292.951     22398.51    810539.97 
    3400           17   0.50172952 0.00030543373    11099.415    11288.162    22387.577    806172.96 
    3500         17.5   0.49984917 0.00068290086    11127.109    11245.856    22372.966    801853.81 
    3600           18   0.50235916 0.00052979764    11046.621    11302.328    22348.948    797582.32 
    3700         18.5   0.49963891 0.00075754159    11122.383    11241.126    22363.509    793358.16 
    3800           19   0.49760799 0.00091529066    11157.631    11195.433    22353.064    789180.08 
    3900         19.5   0.50226352 0.0012122346    11093.209    11300.176    22393.385    785045.54 
    4000           20   0.49909801 -4.4744444e-05    11221.648    11228.957    22450.604    780953.49 
    4100         20.5   0.49725292 0.0016760334    11135.627    11187.445    22323.072    776904.79 
    4200           21   0.49665133 0.0010139026    11063.641     11173.91    22237.551     772899.4 
    4300         21.5   0.50046248 0.0007126616    11035.146    11259.655    22294.801    768934.84 
    4400           22   0.49299502 -0.00026758917     11166.17    11091.648    22257.819    765010.22 
    4500         22.5   0.49786566 -0.0017348842    11192.881    11201.231    22394.112    761124.65 
    4600           23   0.49858798 -0.0020444318    11153.697    11217.482    22371.179    757277.25 
    4700         23.5    0.4941746 -0.0014411866    11206.648    11118.187    22324.835    753467.03 
    4800           24   0.50511204 0.0016218452    11179.747    11364.263     22544.01    749694.32 
    4900         24.5   0.49678176 0.0033218157    11249.037    11176.844    22425.881    745958.37 
    5000           25   0.49655836 0.0027376191    11164.419    11171.818    22336.238    742258.94 
    5100         25.5   0.49655928 -0.00057214987    11221.206    11171.839    22393.045    738596.24 
    5200           26   0.49185754 -9.6673737e-05    11229.814    11066.057    22295.871    734966.97 
    5300         26.5   0.49520584 -0.00054625815    11120.299    11141.388    22261.687     731372.8 
    5400           27   0.49960408 0.00087331628    11188.039    11240.343    22428.381    727811.44 
    5500         27.5   0.50263116 0.0015150428    11234.817    11308.447    22543.264    724281.52 
    5600           28    0.5004173 0.0022586477    11207.643    11258.639    22466.282    720782.62 
    5700         28.5   0.50603728 0.0018342463     11043.87     11385.08     22428.95    717317.04 
    5800           29   0.49904982 -8.9575219e-05    11073.925    11227.872    22301.797    713884.35 
    5900         29.5   0.50283444 -0.0011273229     11160.31    11313.021    22473.331     710482.4 
    6000           30   0.50574176 0.00055275697    11097.917    11378.431    22476.348    707110.21 
    6100         30.5   0.50576625  0.001124834    11098.005    11378.982    22476.987     703767.3 
    6200           31   0.49837874 0.0001889014    11129.027    11212.774    22341.801    700453.63 
    6300         31.5   0.50089042 0.00085010764    11216.042    11269.283    22485.325    697169.17 
    6400           32   0.50219264 0.00060314861    11316.951    11298.581    22615.532     693913.2 
    6500         32.5   0.50211661 -0.0022932503     11337.66     11296.87    22634.531       690686 
    6600           33    0.5064529 -0.00090257951    11295.674     11394.43    22690.104    687484.43 
    6700         33.5    0.5007242 0.0014615613    11260.078    11265.543    22525.622    684310.59 
    6800           34   0.50141627 0.0015329882    11268.152    11281.114    22549.266    681163.27 
    6900         34.5   0.49913797 0.0019888114    11177.194    11229.856     22407.05    678042.38 
    7000           35   0.49750547 0.0027799509    11191.025    11193.127    22384.151    674947.64 
    7100         35.5   0.50510419 -0.00017594085    11155.307    11364.087    22519.394    671880.72 
    7200           36   0.50278617 -0.00094242779    11244.086    11311.935    22556.021     668839.6 
    7300         36.5   0.49880899 0.00063273172    11383.245    11222.454    22605.699    665822.83 
    7400           37   0.49913323 0.0029682674    11204.028    11229.749    22433.777    662830.53 
    7500         37.5   0.49762648 0.0023385959      11086.9    11195.849     22282.75    659863.24 
    7600           38   0.49656028 0.00076933707    11122.799    11171.861    22294.661     656918.6 
    7700         38.5   0.49799672 0.0016418716    11117.687    11204.179    22321.867    653997.31 
    7800           39   0.49936746 0.0019689926    11173.564    11235.019    22408.583    651100.34 
    7900         39.5   0.49155527 0.0023924736    11179.629    11059.256    22238.885    648226.35 
    8000           40   0.49977742 0.0012410035    11085.044    11244.242    22329.286    645375.27 
    8100         40.5   0.49647935 0.00026702401     11180.38    11170.041    22350.421    642547.27 
    8200           41   0.49636712 4.653374e-05    11214.569    11167.516    22382.085    639741.79 
    8300         41.5   0.50341542 -0.00058307338    11264.378    11326.092     22590.47    636957.68 
    8400           42   0.50394126 0.00066655763    11239.163    11337.922    22577.085    634193.84 
    8500         42.5   0.50367092 0.0020893962    11210.222     11331.84    22542.063    631451.94 
    8600           43   0.50222419 0.0022042998    11300.222    11299.291    22599.513    628731.89 
    8700         43.5   0.50681607  0.002912124    11286.156    11402.601    22688.757     626033.2 
    8800           44   0.50813192 0.0014397572    11332.433    11432.206    22764.639    623355.32 
    8900         44.5   0.50042662  0.003241772    11234.425    11258.848    22493.273    620696.28 
    9000           45   0.50286895 -0.00034510256    11194.652    11313.797    22508.449    618058.26 
    9100         45.5   0.50235318 -0.0006976155    11224.637    11302.193     22526.83    615439.07 
    9200           46   0.50071463 0.0014337563    11291.129    11265.328    22556.457    612839.54 
    9300         46.5    0.4991027 0.0023569977    11281.662    11229.062    22510.724    610258.95 
    9400           47   0.50485498 0.0029449604    11190.808     11358.48    22549.288    607698.76 
    9500         47.5    0.5002458 0.0045417526    11133.852     11254.78    22388.632    605157.57 
    9600           48   0.49868863 0.00053046975    11176.783    11219.746    22396.529    602636.95 
    9700         48.5   0.49924744 -0.00052680033    11125.481    11232.319    22357.799    600134.19 
    9800           49   0.49604271 -0.0014049597    11164.088    11160.217    22324.305    597649.52 
    9900         49.5   0.49992641 0.00083971044    11214.601    11247.594    22462.195    595182.03 
   10000           50   0.50161802 0.0023323998    11191.285    11285.653    22476.938    592732.86 
   10100         50.5   0.49844134 -0.00017128258    11283.576    11214.182    22497.758    590300.92 
   10200           51   0.49715237 -0.0016142997    11303.661    11185.183    22488.843    587885.36 
   10300         51.5   0.50586636 -0.00045521257    11150.241    11381.234    22531.476    585487.17 
   10400           52   0.49979623 -0.00061016418    11208.134    11244.665      22452.8    583107.02 
   10500         52.5   0.50169351 -0.0011952272    11187.275    11287.351    22474.626    580745.06 
   10600           53   0.49564647 -0.00093690139    11231.719    11151.302    22383.021    578399.84 
   10700         53.5   0.50488413 0.00036630522    11085.166    11359.136    22444.302    576071.62 
   10800           54    0.5048693 0.00087743171    11190.736    11358.802    22549.538    573759.08 
   10900         54.5   0.50522164 0.0013892658     11353.01    11366.729    22719.739    571461.78 
   11000           55   0.49379971 -0.00098082096    11271.148    11109.753      22380.9    569181.47 
   11100         55.5   0.50056009 -0.0014060945    11182.524    11261.851    22444.376     566916.1 
   11200           56   0.49702084 0.0011851422    11144.206    11182.223     22326.43    564665.94 
   11300         56.5   0.49789032 0.0024006165    11271.252    11201.785    22473.038    562431.65 
   11400           57   0.50080241 0.0027049045    11085.794    11267.303    22353.097     560212.3 
   11500         57.5   0.50061304 -0.0019819849    11302.487    11263.043    22565.529    558008.42 
   11600           58   0.50234275 -0.00034846524    11165.763    11301.958    22467.721    555819.17 
   11700         58.5   0.49695386 0.0020400698    11231.002    11180.716    22411.718     553645.1 
   11800           59   0.49427844 0.0017893183     11203.25    11120.523    22323.773    551486.61 
   11900         59.5    0.4966176 0.0021861278     11211.74    11173.151    22384.891    549342.57 
   12000           60   0.49711443 0.00084047035    11117.266    11184.329    22301.595    547211.96 
   12100         60.5   0.49686456 -0.00050147605    11189.888    11178.707    22368.596    545094.22 
   12200           61   0.49779123 -0.00011174872    11092.229    11199.556    22291.785     542990.6 
   12300         61.5   0.49857659 -0.00047053333    11255.759    11217.225    22472.985    540902.08 
   12400           62   0.50160941 -0.0008714637    11297.236    11285.459    22582.696    538828.81 
   12500         62.5   0.50467951 0.0003692323    11221.532    11354.532    22576.064    536769.33 
   12600           63   0.49908846 0.00075962843    11346.418    11228.742     22575.16    534723.59 
   12700         63.5   0.49951053 0.0015457326    11373.663    11238.238    22611.901    532690.19 
   12800           64   0.50585168 0.0031994533    11277.371    11380.904    22658.275     530669.5 
   12900         64.5   0.50445615 0.0032191938    11277.447    11349.507    22626.954     528661.8 
   13000           65   0.50141049 0.0025831056    11178.704    11280.984    22459.688    526667.85 
   13100         65.5   0.50071174 -0.00016705884    11180.991    11265.263    22446.254    524687.56 
   13200           66   0.50158785  0.001594596    11186.252    11284.974    22471.226     522719.6 
   13300         66.5   0.50271021 0.0013581317    11208.869    11310.226    22519.095    520764.09 
   13400           67   0.50149831 -0.00028997655    11176.175     11282.96    22459.134    518821.41 
   13500         67.5   0.49283367  0.002114235    11170.108    11088.018    22258.127    516890.69 
   13600           68   0.49250526 0.0016411057    11194.421     11080.63     22275.05    514973.12 
   13700         68.5   0.49790973 0.00029219402    11234.507    11202.222    22436.729    513067.12 
   13800           69   0.49362335 0.0022954375     11319.69    11105.785    22425.475    511172.55 
   13900         69.5   0.49825821 0.0011405441    11220.855    11210.062    22430.917    509290.65 
   14000           70    0.5016445 0.0022932298    11083.992    11286.249    22370.241    507421.12 
   14100         70.5   0.49764038 0.0018315343    11124.286    11196.162    22320.448    505563.65 
   14200           71   0.50103309 0.0031490119    11093.415    11272.493    22365.908    503716.36 
   14300         71.5   0.50287834 0.0033648281    11160.217    11314.008    22474.225    501880.52 
   14400           72   0.49896149 0.0011799509    11182.682    11225.885    22408.567    500057.07 
   14500         72.5   0.50288662 0.0012342978     11128.66    11314.195    22442.854    498245.33 
   14600           73   0.50149131 0.0014766906    11154.594    11282.802    22437.396    496444.56 
   14700         73.5   0.49687748 0.0019733651    11355.433    11178.998    22534.431     494654.8 
   14800           74      0.50241 0.0015186176    11191.794    11303.471    22495.265    492876.06 
   14900         74.5   0.50039402 0.0022997081    11207.531    11258.115    22465.646    491108.49 
   15000           75   0.50145971 0.0014256983    11136.321    11282.091    22418.413    489352.63 
   15100         75.5   0.49495735 0.00014682445    11167.635    11135.798    22303.433    487606.43 
   15200           76   0.49622518 0.00075460003     11208.57    11164.322    22372.892    485869.24 
   15300         76.5   0.50415901 0.0013052247    11197.577    11342.821    22540.399    484142.54 
   15400           77   0.50159768 0.0018541904    11290.244    11285.196     22575.44    482426.76 
   15500         77.5    0.5023116 0.00093077751    11163.972    11301.258    22465.229    480721.39 
   15600           78   0.50385289 -0.00029680366    11227.351    11335.934    22563.286    479025.93 
   15700         78.5   0.50510742 9.0859222e-05    11313.627    11364.159    22677.786    477340.64 
   15800           79   0.50601044 0.00062911042    11245.649    11384.476    22630.125    475665.86 
   15900         79.5   0.50114328 0.00035837329    11272.813    11274.972    22547.785    474000.89 
   16000           80   0.50402101 0.0041604105     11084.55    11339.717    22424.267    472345.21 
   16100         80.5   0.49914739 0.0033202466    11164.673    11230.068    22394.741    470700.19 
   16200           81   0.50187943 0.0016029053    11250.157    11291.534    22541.691    469065.05 
   16300         81.5   0.50128049 -0.0010862277    11210.139    11278.059    22488.198    467440.28 
   16400           82   0.50253648 -0.0016576358    11252.236    11306.317    22558.553     465825.6 
   16500         82.5   0.50150978 -8.455129e-05    11323.255    11283.218    22606.473    464219.71 
   16600           83   0.50204707 0.0010396427    11365.193    11295.306    22660.499    462622.66 
   16700         83.5   0.50473129 0.0018779778    11120.986    11355.697    22476.683    461034.05 
   16800           84   0.50356135 -0.0012249079    11349.055    11329.375     22678.43    459455.68 
   16900         84.5   0.50142322 0.0020937071     11255.06     11281.27     22536.33    457887.29 
   17000           85   0.50244519 0.0011241722    11270.418    11304.263    22574.681    456328.88 
   17100         85.5   0.49642174 0.0022819576    11348.896    11168.744     22517.64     454778.8 
   17200           86   0.49541639 0.0022791939    11267.262    11146.126    22413.388    453236.43 
   17300         86.5   0.50284234 0.0031585169    11157.453    11313.198    22470.652    451702.05 
   17400           87   0.49944146 -2.5354007e-06    11222.489    11236.684    22459.173    450176.74 
   17500         87.5   0.50590897 -0.00048367654    11109.921    11382.193    22492.114    448660.69 
   17600           88   0.49488291 -0.00086095902     11266.39    11134.123    22400.513    447154.19 
   17700         88.5   0.49475261 0.0010990092    11261.543    11131.192    22392.734    445656.24 
   17800           89   0.49951698 0.0026253983    11224.197    11238.383    22462.579    444166.12 
   17900         89.5   0.49818292 0.0015622075    11132.149    11208.368    22340.517    442684.23 
   18000           90    0.4985528 0.0022336063    11233.554     11216.69    22450.244    441210.59 
   18100         90.5   0.49917014 0.0020826175    11249.806    11230.579    22480.385    439745.85 
   18200           91   0.50285753 0.00091136905    11265.103     11313.54    22578.643    438288.89 
   18300         91.5   0.50873598 0.00021870213    11298.955    11445.796    22744.751     436838.9 
   18400           92   0.50837528 0.0031244375    11350.284    11437.681    22787.965     435397.2 
   18500         92.5   0.50837641 0.0024837827    11276.793    11437.707      22714.5    433963.83 
   18600           93   0.50168917 0.0026284854    11256.598    11287.254    22543.852    432538.74 
   18700         93.5   0.49985153 -0.0015194351     11254.63     11245.91     22500.54    431122.04 
   18800           94   0.49663006 -0.00052602251    11201.054    11173.431    22374.485    429712.51 
   18900         94.5    0.4981992 0.0042555619    11173.613    11208.735    22382.347     428310.4 
   19000           95    0.4999408 0.0026664518    11189.922    11247.918     22437.84    426916.46 
   19100         95.5   0.49735046  0.003187421    11206.784    11189.639    22396.423    425530.21 
   19200           96   0.49774161 0.00048645664    11155.106     11198.44    22353.546    424151.52 
   19300         96.5   0.49310719 -0.0023003092    11211.482    11094.172    22305.654    422779.57 
   19400           97   0.49863282 -0.0011156546    11175.239    11218.491     22393.73     421414.6 
   19500         97.5   0.50491145 0.0017802398    11181.756     11359.75    22541.507    420057.23 
   19600           98   0.49895503 0.0012391788    11201.391     11225.74     22427.13    418707.74 
   19700         98.5   0.49623991 -0.0011064116    11194.696    11164.654     22359.35    417365.68 
   19800           99   0.50065364 -0.0029473061    11164.607    11263.956    22428.563    416030.52 
   19900         99.5   0.50110798 -0.00071161007    11247.831    11274.178    22522.008    414701.92 
   20000          100   0.50315073 0.0033589983    11200.928    11320.137    22521.065    413380.45 
   20100        100.5   0.50225353 0.0040123677    11248.344    11299.951    22548.295    412066.56 
   20200          101   0.50441488 0.00062574935     11205.71    11348.578    22554.288    410760.19 
   20300        101.5     0.502158 0.00043600678    11264.734    11297.802    22562.536     409460.8 
   20400          102    0.5033945 0.0043983684    11217.042    11325.621    22542.663    408167.97 
   20500        102.5   0.50147541 0.0059513041    11315.891    11282.445    22598.336    406881.58 
   20600          103   0.50505796 0.0024259151    11178.307    11363.046    22541.354    405602.52 
   20700        103.5   0.49746166 -0.00064399903     11087.67    11192.141    22279.812    404330.66 
   20800          104   0.49695762 0.0032508665    11110.266    11180.801    22291.067    403065.49 
   20900        104.5   0.49873103 0.0084798618    11144.406      11220.7    22365.106    401807.16 
   21000          105   0.49762434 0.0058371904    11236.287    11195.801    22432.088    400556.26 
   21100        105.5   0.49229382 0.0056730233     11180.76    11075.872    22256.632     399310.9 
   21200          106   0.49598151 0.0021732713    11188.083     11158.84    22346.923    398071.87 
   21300        106.5   0.49721726 0.00015188706    11162.859    11186.642    22349.501    396838.37 
   21400          107    0.4945987 0.00025257406     11236.32    11127.729    22364.049     395610.7 
   21500        107.5   0.49545668 0.0030677779    11195.434    11147.032    22342.466    394388.78 
   21600          108   0.50144489 0.00022739185    11101.026    11281.758    22382.784    393173.57 
   21700        108.5   0.50165411 0.00095645732    11200.031    11286.465    22486.496    391965.42 
   21800          109   0.50138972 0.0040139364    11123.476    11280.517    22403.993    390763.49 
   21900        109.5   0.49764379 0.0016162722    11207.742    11196.239    22403.981    389568.57 
   22000          110   0.50279553 -0.00068783959     11075.73    11312.145    22387.875    388379.71 
   22100        110.5   0.49654082 0.0036011549    11214.052    11171.424    22385.476    387196.33 
   22200          111   0.49964848 0.0025751083    11220.974    11241.341    22462.315    386019.34 
   22300        111.5   0.50327222 0.0027809383    11216.578     11322.87    22539.448    384848.57 
   22400          112   0.50066751 0.00043191805    11183.377    11264.268    22447.644    383683.43 
   22500        112.5   0.49989588 0.0014281919    11203.165    11246.908    22450.073    382523.53 
   22600          113   0.50651827 0.0035599097    11172.328    11395.901    22568.229    381369.29 
   22700        113.5   0.49847392  0.001422679    11265.656    11214.916    22480.571    380221.79 
   22800          114   0.49687467 -9.88378e-05    11232.325    11178.935    22411.259    379080.06 
   22900        114.5   0.49867677 0.0014640694    11188.768    11219.479    22408.247    377942.95 
   23000          115   0.49568467 0.0037082149    11119.419    11152.162    22271.581    376810.54 
   23100        115.5   0.49490954 0.0024461049    11188.948    11134.722    22323.671     375684.3 
   23200          116   0.49231076 0.0001793367    11122.265    11076.254    22198.519    374564.79 
   23300        116.5   0.49731616 0.0025763001    11043.375    11188.868    22232.243     373451.1 
   23400          117   0.49106194 -0.0012782226     11100.15    11048.157    22148.307    372343.09 
   23500        117.5   0.49453041 0.0059268906    11109.656    11126.192    22235.848    371239.51 
   23600          118   0.49579641 0.0040055417    11155.616    11154.676    22310.292    370142.36 
   23700        118.5   0.49658273 -0.0022623703      11160.1    11172.367    22332.466    369050.64 
   23800          119   0.49728455 0.0017183346    11251.391    11188.156    22439.547       367964 
   23900        119.5   0.49986146  0.002421692    11206.762    11246.133    22452.895       366883 
   24000          120   0.49491882 0.0016756186    11175.664    11134.931    22310.595    365806.81 
   24100        120.5   0.49649628 0.0042072725    11185.184    11170.421    22355.605    364735.22 
   24200          121   0.49969138 0.00039042447    11119.512    11242.307    22361.819    363669.48 
   24300        121.5   0.50278676 0.00079828455    11113.577    11311.948    22425.525    362608.93 
   24400          122   0.49948648 0.0006924589    11202.988    11237.697    22440.685    361553.21 
   24500        122.5   0.50088143 -0.0023587773     11202.35    11269.081    22471.431    360502.72 
   24600          123   0.50025025 0.00012449899    11259.128     11254.88    22514.008    359456.67 
   24700        123.5   0.50092733 0.0047852148    11139.068    11270.113    22409.182    358415.45 
   24800          124   0.49620424 0.0019214441    11187.731    11163.851    22351.582    357380.37 
   24900        124.5   0.49735526 -0.00015030983     11092.19    11189.747    22281.938    356350.23 
   25000          125   0.49238814 0.0020255923    11096.014    11077.995    22174.008    355324.56 
   25100        125.5   0.49645289 0.0033798903    11035.112    11169.445    22204.558    354304.08 
   25200          126   0.49944026 0.0043082801    11116.278    11236.657    22352.934    353289.15 
   25300        126.5   0.49929077 0.0053693038    11138.348    11233.293    22371.641    352279.11 
   25400          127   0.49930933 0.0070698572    11145.961    11233.711    22379.672    351273.42 
   25500        127.5   0.49766525 0.0039712906    11105.949    11196.722    22302.671    350272.43 
   25600          128   0.49910527 0.00093031112     11143.46     11229.12     22372.58    349276.01 
   25700        128.5   0.49648194 5.6104453e-05    11090.447    11170.099    22260.546    348283.78 
   25800          129   0.49371969 -0.0019565867     11204.29    11107.952    22312.243    347296.27 
   25900        129.5   0.50465704 0.0031857325    11175.071    11354.026    22529.097    346313.15 
   26000          130   0.49949638 0.0033464471    11250.454    11237.919    22488.373    345335.02 
   26100        130.5    0.5002454 0.0053358861    11215.941    11254.771    22470.713    344360.85 
   26200          131   0.50168218 0.0017511197    11160.691    11287.097    22447.787    343391.95 
   26300        131.5   0.50041681 -0.00040396099    11144.223    11258.627    22402.851    342427.74 
   26400          132   0.49909554 -0.00091957683    11200.341    11228.901    22429.243    341468.19 
   26500        132.5    0.5003644 0.0023723398    11248.173    11257.448    22505.622    340513.06 
   26600          133   0.50779314 0.0059394213    11172.418    11424.584    22597.002    339562.23 
   26700        133.5   0.50095766 0.0044727561    11222.562    11270.796    22493.358    338616.03 
   26800          134   0.50133144 0.0052204223    11217.601    11279.205    22496.806    337674.28 
   26900        134.5   0.50340057 0.0020710273    11171.812    11325.758     22497.57    336737.44 
   27000          135   0.49970471 0.0014919764    11255.425    11242.606    22498.031    335804.98 
   27100        135.5   0.50161905 0.0022284469    11338.163    11285.676    22623.839    334876.62 
   27200          136   0.50036426 0.0051659353    11176.113    11257.445    22433.558       333952 
   27300        136.5    0.5010461 0.0022672482    11301.571    11272.786    22574.357    333031.18 
   27400          137    0.4997297 0.0010179337    11468.164    11243.169    22711.333    332113.97 
   27500        137.5   0.50521913 0.0027878095    11176.717    11366.673     22543.39     331200.9 
   27600          138   0.49677398 0.0020851659     11352.52    11176.669     22529.19    330292.21 
   27700        138.5   0.50271451 0.0029302197    11296.152    11310.322    22606.474    329387.78 
   27800          139   0.49961452 0.0028995478    11189.756    11240.577    22430.333    328487.34 
   27900        139.5   0.49991522 0.0023413897    11230.082    11247.343    22477.425    327591.17 
   28000          140   0.50244832 0.0019899484    11056.394    11304.333    22360.727    326699.13 
   28100        140.5   0.50115338 0.0036518702        11042    11275.199    22317.199    325811.23 
   28200          141   0.48842161 0.0019983144     11185.33    10988.754    22174.083    324927.43 
   28300        141.5   0.49229057 -0.00011392231    11059.031    11075.799    22134.831    324047.34 
   28400          142   0.50008829 -0.0011048395    11092.696    11251.236    22343.932    323170.85 
   28500        142.5   0.49916603 -0.00046232811    11121.794    11230.487    22352.281    322297.93 
   28600          143   0.50091415 0.0048526083    11156.059    11269.817    22425.876    321429.05 
   28700        143.5   0.49732113 0.0074762971    11239.398    11188.979    22428.378    320564.44 
   28800          144   0.49955206 0.0050345826    11275.838    11239.172     22515.01    319703.58 
   28900        144.5   0.50119718 0.0051471154    11347.853    11276.185    22624.038    318846.44 
   29000          145   0.50123884 0.0017426068    11233.094    11277.122    22510.216    317993.94 
   29100        145.5   0.49876592 0.00082098909    11350.417    11221.485    22571.903    317145.18 
   29200          146   0.50000545 -7.6062466e-05    11284.872    11249.373    22534.244    316300.64 
   29300        146.5   0.50093631 -0.0021663799    11153.547    11270.316    22423.863    315459.63 
   29400          147    0.4949218 -0.0023373997    11218.066    11134.998    22353.065    314621.41 
   29500        147.5   0.50005065 0.0037587195     11198.24    11250.389    22448.629    313786.56 
   29600          148   0.49829394 0.0072000918    11381.992    11210.866    22592.858       312955 
   29700        148.5   0.50163968 0.0039478797    11351.654     11286.14    22637.794    312127.49 
   29800          149   0.49733676 0.0020116319    11238.417    11189.331    22427.749    311303.37 
   29900        149.5   0.50067872 -0.0022043689      11219.5     11264.52     22484.02    310482.94 
   30000          150    0.5007579 0.00030747072    11187.326    11266.302    22453.627    309666.29 
   30100        150.5   0.50131883 -0.0016352304    11234.682    11278.922    22513.604    308853.58 
   30200          151   0.49877986 0.00087147805    11128.327    11221.799    22350.125    308044.29 
   30300        151.5   0.50341274 0.0071898905    11192.603    11326.032    22518.635    307238.62 
   30400          152   0.50177645 0.0089340975    11313.956    11289.217    22603.174    306436.26 
   30500        152.5   0.50166506  0.005345311    11254.716    11286.711    22541.427    305638.11 
   30600          153   0.50075394 0.0082504774    11146.895    11266.213    22413.107    304842.57 
   30700        153.5   0.49872124 0.0058733244    11181.271     11220.48    22401.751    304050.86 
   30800          154   0.50147617 0.0016104195    10967.516    11282.462    22249.978    303262.74 
   30900        154.5    0.4972678 -0.0029497817    11140.603     11187.78    22328.383       302478 
   31000          155   0.49761403 -0.00049450935    11195.667    11195.569    22391.236    301696.16 
   31100        155.5   0.49869683 0.0028314936    11248.851    11219.931    22468.782    300917.69 
   31200          156   0.49314236 -6.1218102e-05      11215.9    11094.963    22310.863    300142.59 
   31300        156.5   0.49916047 0.0041828081    11016.462    11230.362    22246.823    299370.12 
   31400          157   0.49589286 0.00092061322    11240.175    11156.846    22397.021    298600.57 
   31500        157.5   0.50546019  0.002786112    11232.275    11372.096    22604.371    297834.61 
   31600          158   0.50786286 0.0058655859    11153.657    11426.153     22579.81    297072.44 
   31700        158.5   0.50220507 0.0024375106    11278.453    11298.861    22577.313    296313.96 
   31800          159    0.5048167 0.0026635578    11213.235    11357.618    22570.853    295558.45 
   31900        159.5   0.50244466 0.0033323088    11152.348    11304.251    22456.599    294805.88 
   32000          160    0.4993011 0.0031423147    11233.747    11233.526    22467.273    294056.14 
   32100        160.5   0.50386032 0.0039773777    11167.148    11336.101    22503.249    293309.51 
   32200          161   0.50027342  0.003087057    11306.256    11255.401    22561.657    292566.17 
   32300        161.5   0.50244289 0.0017281609    11200.067    11304.211    22504.278    291826.36 
   32400          162   0.49815486 0.0037247343    11341.128    11207.737    22548.865    291089.51 
   32500        162.5   0.49750551 0.0034607277    11221.355    11193.128    22414.483    290355.75 
   32600          163   0.49806336 0.0065425737     11205.95    11205.679    22411.628    289624.81 
   32700        163.5   0.50177292 0.0022388254    11144.303    11289.138    22433.441    288897.15 
   32800          164   0.50216419 0.0025999342     11216.66    11297.941    22514.601    288171.77 
   32900        164.5   0.50124496 0.0015942968    11226.659     11277.26    22503.918    287449.38 
   33000          165   0.50120746 0.0032610911    11291.486    11276.416    22567.902    286730.35 
   33100        165.5    0.4960866 0.0022180629     11260.18    11161.204    22421.384    286014.41 
   33200          166   0.49938614 0.0023356551    11171.618    11235.439    22407.057    285301.47 
   33300        166.5   0.50031957 0.0011657689    11268.678     11256.44    22525.118     284591.6 
   33400          167   0.49933785 -0.0010021968    11224.744    11234.353    22459.096    283884.18 
   33500        167.5   0.49899984 -0.0057765714     11248.12    11226.748    22474.868    283179.63 
   33600          168    0.4991714 0.0024220931    11226.643    11230.608     22457.25    282477.71 
   33700        168.5   0.50368186 0.0055865198    11216.401    11332.086    22548.487    281779.04 
   33800          169   0.49876122 0.0072698653    11179.005    11221.379    22400.385     281083.4 
   33900        169.5    0.4964724 0.0081525124    11221.841    11169.884    22391.725    280390.38 
   34000          170   0.49769848 0.0040169239    11205.072    11197.469    22402.541    279700.47 
   34100        170.5   0.50276105 0.00097914906    11240.001     11311.37    22551.371    279013.39 
   34200          171   0.49652936 -0.0012344787    11265.648    11171.166    22436.814    278328.65 
   34300        171.5   0.49839801 0.0011702043    11172.549    11213.208    22385.756    277646.64 
   34400          172   0.49600608 0.0027992559    11345.358    11159.393     22504.75    276967.31 
   34500        172.5   0.49861819 0.0058604371    11349.949    11218.161     22568.11    276291.14 
   34600          173    0.5007994 0.0037433323    11334.656    11267.235    22601.891    275618.18 
   34700        173.5   0.50055486 0.0037615691    11282.907    11261.733    22544.641    274947.62 
   34800          174   0.50269837 0.0034566541    11213.988    11309.959    22523.948    274279.94 
   34900        174.5   0.50732754 0.0055841717    11202.867    11414.109    22616.976    273615.24 
   35000          175    0.5002482 0.0027657788    11297.694    11254.834    22552.528    272953.13 
   35100        175.5   0.50370481 0.0031791629    11340.242    11332.603    22672.844    272293.67 
   35200          176   0.50064239 0.0039802835    11252.928    11263.703    22516.631    271636.53 
   35300        176.5   0.49958395 0.0049720434    11237.051    11239.889     22476.94     270981.4 
   35400          177   0.49679499 -0.00075875039    11222.817    11177.142    22399.959    270329.09 
   35500        177.5    0.4956757 0.0017593753    11197.651     11151.96    22349.611    269679.07 
   35600          178   0.49664796 0.0079409739    11195.114    11173.834    22368.948    269031.36 
   35700        178.5   0.49960508  0.005829647    11208.967    11240.365    22449.332    268386.59 
   35800          179   0.50034675 -0.002870203    11140.739    11257.051     22397.79    267744.47 
   35900        179.5   0.49804804 -0.0001678785     11256.89    11205.334    22462.224    267104.44 
   36000          180   0.49907188 0.0016403155    11243.784    11228.369    22472.153    266466.76 
   36100        180.5   0.50024151 0.0057263078    11220.052    11254.684    22474.735    265831.48 
   36200          181   0.49487169 0.0057941493    11262.751    11133.871    22396.621    265198.58 
   36300        181.5   0.49992353 7.2589335e-05    11230.754     11247.53    22478.284    264568.74 
   36400          182   0.49477689 -0.0026515758    11119.627    11131.738    22251.365    263941.55 
   36500        182.5   0.49239295 -0.0038827491    11166.666    11078.103    22244.768    263316.58 
   36600          183   0.50011222 0.0010799174    11060.895    11251.775    22312.669    262693.47 
   36700        183.5    0.4970591 0.0062789351    11174.958    11183.084    22358.042    262072.87 
   36800          184   0.49352569 0.0095326628    11338.344    11103.588    22441.932    261455.19 
   36900        184.5   0.50000287 0.0062704312     11074.28    11249.315    22323.595    260840.85 
   37000          185   0.49835104 -0.00061216732    11158.632    11212.151    22370.783    260228.86 
   37100        185.5   0.50037073 -0.00058142676    11113.739    11257.591     22371.33    259618.41 
   37200          186   0.50413087 0.0014859695    11180.091    11342.188    22522.279    259009.97 
   37300        186.5   0.50208203 0.0030068695    11251.274    11296.092    22547.367    258404.18 
   37400          187   0.50609416 0.0041564407    11240.119     11386.36    22626.478    257801.02 
   37500        187.5   0.50857409 -0.00036746249    11165.951    11442.154    22608.106    257200.15 
   37600          188   0.50110068 -0.0028360518    11269.458    11274.014    22543.472    256601.21 
   37700        188.5   0.50404416 0.0076986299    11201.632    11340.238    22541.869     256004.2 
   37800          189   0.49967846 0.0084924102    11196.583    11242.016    22438.599    255409.86 
   37900        189.5   0.50004218 0.0036725885    11173.124    11250.199    22423.323    254817.89 
   38000          190   0.49722834 0.0037306486    11167.547    11186.892    22354.439    254227.97 
   38100        190.5   0.49820802 0.0035918808    11138.118    11208.933    22347.051    253640.29 
   38200          191   0.50378988 -0.0045357592    11149.285    11334.517    22483.801    253055.11 
   38300        191.5   0.49564231 -0.0041483841    11104.348    11151.208    22255.556    252472.48 
   38400          192    0.5004001  0.005535953    11159.611    11258.252    22417.863    251892.26 
   38500        192.5   0.50122251 0.0045983012    11288.199    11276.755    22564.954    251314.33 
   38600          193   0.50481745 -0.0022695532    11279.231    11357.635    22636.866     250738.1 
   38700        193.5   0.50279283  -0.00159887    11282.892    11312.084    22594.976    250163.52 
   38800          194   0.50063918 0.0028857371    11195.937    11263.631    22459.567    249591.23 
   38900        194.5   0.49937474 0.0091190116    11239.021    11235.182    22474.204    249021.38 
   39000          195   0.49847686 0.0092917298    11276.617    11214.982    22491.599    248454.01 
   39100        195.5   0.49983547 0.0067889208     11126.99    11245.548    22372.538    247888.76 
   39200          196   0.49465398 0.0020058073    11249.605    11128.973    22378.578    247325.58 
   39300        196.5   0.49999116 -0.00033604047    11268.273    11249.051    22517.324    246764.29 
   39400          197   0.50425237 0.0011654153     11169.09    11344.922    22514.012    246204.85 
   39500        197.5   0.49844944 0.0098528497     11175.02    11214.365    22389.384    245647.32 
   39600          198   0.49793563 0.0075262508    11154.619    11202.805    22357.423     245092.3 
   39700        198.5   0.49546734 0.0024619423    11143.273    11147.272    22290.545    244539.07 
   39800          199   0.50074024 0.00037220633    11058.373    11265.904    22324.277    243987.73 
   39900        199.5   0.49706989 -0.0033984153    11167.813    11183.327     22351.14    243438.46 
   40000          200   0.50003609 -0.0010224946    11163.938    11250.062        22414     242890.9 
   40100        200.5    0.4967671  0.003723944    11133.949    11176.515    22310.464    242345.36 
   40200          201    0.5003282  0.010595083    11064.047    11256.634    22320.681    241802.04 
   40300        201.5   0.50003784 0.0047189468    11096.448    11250.101    22346.549    241261.46 
   40400          202   0.50250257 0.0010341454    11202.039    11305.554    22507.593     240721.9 
   40500        202.5   0.49607896 -0.0040796899    11164.467    11161.033    22325.499    240184.53 
   40600          203     0.499494  0.002980025     11120.97    11237.866    22358.835    239648.77 
   40700        203.5    0.5065335   0.00885455    11179.968    11396.244    22576.212    239115.32 
   40800          204   0.50559289 0.0053051996    11131.763    11375.082    22506.845    238584.24 
   40900        204.5   0.50041132 0.00019727369    11202.135    11258.504     22460.64    238055.19 
   41000          205   0.50692828 -0.0011787679    11201.118    11405.126    22606.244    237527.99 
   41100        205.5   0.50592694 0.0019474005    11254.514    11382.597    22637.112    237002.22 
   41200          206   0.49536026 0.0052357084    11270.878    11144.863    22415.741    236478.16 
   41300        206.5   0.50130691 0.0072351662    11327.934    11278.654    22606.587    235956.16 
   41400          207   0.50471463 0.0064048995    11177.211    11355.322    22532.533    235435.87 
   41500        207.5   0.50485707 0.0013959936    11213.442    11358.527    22571.968    234917.78 
   41600          208   0.49836767 0.0033440035    11286.459    11212.525    22498.984    234401.56 
   41700        208.5   0.49901946 0.0044984838     11243.91    11227.189      22471.1    233887.23 
   41800          209   0.49806246 0.0033838714    11274.988    11205.658    22480.646    233375.03 
   41900        209.5    0.5015408 0.0041044677    11218.899    11283.916    22502.815    232864.67 
   42000          210   0.49944438 0.0063543761    11198.596    11236.749    22435.345    232356.32 
   42100        210.5    0.4969676 0.0092716172    11290.324    11181.026     22471.35    231849.65 
   42200          211   0.50334183 -0.00031040828    11253.774    11324.436     22578.21    231345.14 
   42300        211.5   0.50237791 0.00059065319    11153.951    11302.749      22456.7    230842.14 
   42400          212   0.50061632 0.0027644565     11198.35    11263.116    22461.466    230340.85 
   42500        212.5   0.49879265 0.00037544576    11339.099    11222.087    22561.185    229840.84 
   42600          213   0.50111686 0.0038189439    11241.582    11274.378     22515.96    229342.43 
   42700        213.5   0.50175011 0.0096836364    11264.997    11288.625    22553.622    228846.43 
   42800          214   0.50043424 0.0050093425    11204.363     11259.02    22463.383    228352.49 
   42900        214.5   0.50096913 0.0061591423    11170.315    11271.054    22441.369    227859.97 
   43000          215   0.50014729 0.0090333841    11135.283    11252.564    22387.847    227368.71 
   43100        215.5   0.50207335 0.0032102499    11253.448    11295.897    22549.345    226879.31 
   43200          216   0.50157009 0.00043372591    11180.041    11284.575    22464.616    226391.64 
   43300        216.5   0.49659966 -0.0017634532    11266.969    11172.747    22439.716    225905.93 
   43400          217   0.49743489 0.0023033134    11223.124    11191.539    22414.663    225421.73 
   43500        217.5   0.49897199 0.0061803902    11201.867    11226.121    22427.989    224939.31 
   43600          218   0.50012256 0.0076267317    11176.414    11252.007    22428.422    224458.39 
   43700        218.5   0.50527069 0.0073788687    11163.298    11367.833    22531.131     223979.1 
   43800          219   0.50232408 0.0022774707    11141.531    11301.538    22443.069    223501.57 
   43900        219.5   0.50150454  0.003272529     11231.27      11283.1     22514.37     223026.2 
   44000          220   0.49997725 0.0077329737    11103.978    11248.738    22352.716    222552.45 
   44100        220.5   0.49704638 0.0055716488    11181.828    11182.798    22364.626    222080.58 
   44200          221   0.49204235 -0.0040434241    11337.697    11070.215    22407.912    221610.21 
   44300        221.5   0.50225286 -0.0018029241    11152.155    11299.936    22452.091    221141.15 
   44400          222   0.49508573 0.0014066792    11166.227    11138.686    22304.913    220673.62 
   44500        222.5   0.49923446 0.0063294595    11195.452    11232.026    22427.479    220207.33 
   44600          223   0.49790737 0.0077268548    11240.164    11202.169    22442.333    219742.93 
   44700        223.5   0.50103169  0.011759112    11196.487    11272.461    22468.949    219280.49 
   44800          224   0.49620232 0.0038247987    11242.948    11163.808    22406.756    218820.27 
   44900        224.5   0.49374641 0.0012625496    11175.831    11108.554    22284.385    218361.47 
   45000          225   0.49541427 0.0033527096    11179.493    11146.078    22325.571    217904.24 
   45100        225.5    0.4996094  0.005828547    11296.373    11240.462    22536.835     217448.6 
   45200          226    0.4963473  0.012606622    11164.331     11167.07    22331.401     216994.4 
   45300        226.5    0.4993047  0.013879554    11171.835    11233.607    22405.442    216541.61 
   45400          227   0.49896283 0.0070409471     11178.79    11225.915    22404.705    216090.09 
   45500        227.5   0.49794596  0.001244592    11068.879    11203.037    22271.916    215640.35 
   45600          228   0.49424568 -0.0024376792    11190.141    11119.786    22309.927    215192.18 
   45700        228.5   0.50036012 -0.0042058582    11123.166    11257.352    22380.518    214745.48 
   45800          229   0.50139131 -0.0022839527    11178.204    11280.552    22458.756    214300.13 
   45900        229.5   0.49752333 -0.0003283297    11234.809    11193.529    22428.337    213856.22 
   46000          230   0.49614396 0.0030891926    11186.789    11162.495    22349.284    213413.68 
   46100        230.5   0.50517945  0.011163005     11152.73     11365.78    22518.509    212972.63 
   46200          231   0.50127057 0.0098857699    11172.839    11277.836    22450.675    212533.65 
   46300        231.5   0.50252371 0.0062923252    11188.095     11306.03    22494.125    212095.91 
   46400          232    0.4997813 0.0014438955     11291.96     11244.33    22536.289    211659.59 
   46500        232.5   0.49876539 0.0033469056    11201.885    11221.473    22423.358    211224.56 
   46600          233   0.49690156 0.0062142945     11238.83     11179.54     22418.37    210790.71 
   46700        233.5   0.50043763 0.0079121326    11141.214    11259.096     22400.31    210358.31 
   46800          234   0.49652242 0.0091757913    11321.198     11171.01    22492.208    209927.75 
   46900        234.5   0.49911663 -0.0010624488    11201.075    11229.376     22430.45    209498.73 
   47000          235   0.49975619 0.00050948247    11267.163    11243.765    22510.928    209070.74 
   47100        235.5   0.49851066  0.011453599    11397.924    11215.742    22613.666    208644.27 
   47200          236   0.50453418 0.0053195158     11195.05    11351.262    22546.312    208219.58 
   47300        236.5   0.50231509 -0.0019755751    11224.917    11301.336    22526.253       207796 
   47400          237     0.505513 0.0024405962     11242.19    11373.284    22615.474    207373.38 
   47500        237.5   0.49987574 0.0048188528    11395.338    11246.454    22641.793    206952.43 
   47600          238    0.5045222 0.0070125923    11238.893    11350.993    22589.885    206532.85 
   47700        238.5   0.49910922 0.00060460186    11325.478    11229.209    22554.687    206114.52 
   47800          239    0.5032232 0.0044039725    11197.547    11321.767    22519.314    205697.35 
   47900        239.5   0.50225406 0.0028700226    11297.721    11299.963    22597.684    205281.66 
   48000          240   0.50257744 0.0015407549    11291.918    11307.238    22599.156    204867.23 
   48100        240.5   0.49670275 0.0068318442     11208.21    11175.067    22383.277    204454.13 
   48200          241   0.49694429 0.0073373343     11274.45    11180.501    22454.951    204043.14 
   48300        241.5   0.49749706  0.010164111    11236.462    11192.938    22429.399    203633.67 
   48400          242   0.50190674 0.0056474655    11208.763    11292.149    22500.912    203225.73 
   48500        242.5   0.49827164  0.006001425    11248.495    11210.364     22458.86       202819 
   48600          243    0.4981333  0.001316479     11242.79    11207.252    22450.042    202413.81 
   48700        243.5   0.50208615 0.0036444126    11191.347    11296.185    22487.532    202009.81 
   48800          244   0.49768742 0.0031017224    11249.451     11197.22    22446.672    201606.82 
   48900        244.5   0.50472863 0.00098559726    11317.794    11355.637    22673.431    201205.25 
   49000          245   0.50399057 0.0072935496    11325.738    11339.032     22664.77    200804.73 
   49100        245.5   0.50475937  0.013680225    11185.358    11356.329    22541.686    200405.49 
   49200          246   0.50330898  0.009610654    11216.363    11323.697     22540.06    200007.59 
   49300        246.5   0.49927344 0.0076754298     11274.25    11232.903    22507.154    199611.07 
   49400          247   0.50054214 0.0077624126    11275.633    11261.447     22537.08    199215.84 
   49500        247.5   0.49836714 -0.0012472381    11295.884    11212.513    22508.397    198821.71 
   49600          248    0.5011746 0.00090969099    11299.039    11275.677    22574.715    198428.54 
   49700        248.5   0.50519181 0.0051920843     11176.93    11366.058    22542.988     198036.7 
   49800          249    0.4995263 0.0054643822    11366.369    11238.593    22604.962    197646.38 
   49900        249.5   0.50159206 0.0072694562    11330.003    11285.069    22615.072     197257.8 
   50000          250   0.50386161 0.0053437317    11251.978     11336.13    22588.108    196870.44 
Loop time of 159.919 on 1 procs for 50000 steps with 15000 atoms

Performance: 135068.781 tau/day, 312.659 timesteps/s
98.3% CPU use with 1 MPI tasks x 1 OpenMP threads

MPI task timing breakdown:
Section |  min time  |  avg time  |  max time  |%varavg| %total
---------------------------------------------------------------
Pair    | 8.5663     | 8.5663     | 8.5663     |   0.0 |  5.36
Bond    | 65.717     | 65.717     | 65.717     |   0.0 | 41.09
Neigh   | 26.324     | 26.324     | 26.324     |   0.0 | 16.46
Comm    | 2.5126     | 2.5126     | 2.5126     |   0.0 |  1.57
Output  | 1.6172     | 1.6172     | 1.6172     |   0.0 |  1.01
Modify  | 53.575     | 53.575     | 53.575     |   0.0 | 33.50
Other   |            | 1.606      |            |       |  1.00

Nlocal:    15000 ave 15000 max 15000 min
Histogram: 1 0 0 0 0 0 0 0 0 0
Nghost:    2314 ave 2314 max 2314 min
Histogram: 1 0 0 0 0 0 0 0 0 0
Neighs:    2408 ave 2408 max 2408 min
Histogram: 1 0 0 0 0 0 0 0 0 0

Total # of neighbors = 2408
Ave neighs/atom = 0.160533
Ave special neighs/atom = 5.2
Neighbor list builds = 4678
Dangerous builds = 2064

unfix 2
unfix 3
fix 4 all nve
fix 5 all langevin ${T} ${T} 1 123456
fix 5 all langevin 0.5 ${T} 1 123456
fix 5 all langevin 0.5 0.5 1 123456
fix recen1 all recenter INIT INIT INIT


# RUN
run ${run_steps}
run 2000000
Per MPI rank memory allocation (min/avg/max) = 29.09 | 29.09 | 29.09 Mbytes
Step Time Temp Press PotEng KinEng TotEng Volume 
   50000          250   0.50386161 0.0053437317    11251.978     11336.13    22588.108    196870.44 
   50100        250.5   0.50556433 0.0083769205    11224.236    11374.439    22598.675    196870.44 
   50200          251   0.50234097  0.012278604     11224.11    11301.918    22526.028    196870.44 
   50300        251.5   0.49876444 0.0048858656    11291.587    11221.452    22513.039    196870.44 
   50400          252   0.50046352 0.0033908718    11155.476    11259.679    22415.154    196870.44 
   50500        252.5   0.49780708 -0.0026957925    11225.805    11199.912    22425.717    196870.44 
   50600          253   0.49766559 -0.0029085556    11164.918    11196.729    22361.647    196870.44 
   50700        253.5   0.49889739 0.0051824835    11100.568    11224.443    22325.011    196870.44 
   50800          254   0.49771899 0.0059717586    11314.912    11197.931    22512.842    196870.44 
   50900        254.5   0.49833981 0.0055552653    11235.921    11211.898    22447.819    196870.44 
   51000          255   0.50014608 0.0082820573    11298.483    11252.537    22551.019    196870.44 
   51100        255.5   0.50426504 0.0062503456    11265.258    11345.207    22610.465    196870.44 
   51200          256   0.49891413 0.0050147284    11287.807     11224.82    22512.627    196870.44 
   51300        256.5   0.49822314 0.0020070028    11220.058    11209.273    22429.331    196870.44 
   51400          257   0.49998537   0.01218052    11073.857    11248.921    22322.778    196870.44 
   51500        257.5   0.49393294 0.0054854561     11152.53     11112.75     22265.28    196870.44 
   51600          258    0.4941268 -0.0043073583    11168.235    11117.112    22285.347    196870.44 
   51700        258.5   0.49223909 -0.0031923721    11088.899    11074.641     22163.54    196870.44 
   51800          259   0.49757156 -0.0037255204    11127.546    11194.614    22322.159    196870.44 
   51900        259.5   0.49502141 0.0010678729    11201.746    11137.239    22338.985    196870.44 
   52000          260   0.49897514 0.0094602588    11131.344    11226.192    22357.537    196870.44 
   52100        260.5   0.49569198  0.012512652    11210.063    11152.326    22362.389    196870.44 
   52200          261   0.49776557 0.0097148572    11104.529    11198.979    22303.508    196870.44 
   52300        261.5   0.49911309 0.00076122781    11164.641    11229.296    22393.937    196870.44 
   52400          262   0.49998906 0.0007034572    11287.387    11249.004    22536.391    196870.44 
   52500        262.5   0.50112348 -0.0035569009     11165.09    11274.527    22439.616    196870.44 
   52600          263   0.49711093 -0.00072974507    11226.318     11184.25    22410.568    196870.44 
   52700        263.5   0.49966001  0.000824317    11091.021    11241.601    22332.622    196870.44 
   52800          264   0.50100104 0.0088542909    11152.979    11271.772     22424.75    196870.44 
   52900        264.5   0.50073653  0.010602311    11078.682    11265.821    22344.503    196870.44 
   53000          265    0.4971917 0.0060747577    11151.202    11186.067    22337.269    196870.44 
   53100        265.5   0.49229895 0.0045020189    11024.616    11075.988    22100.604    196870.44 
   53200          266   0.50133995 -0.00035174666    11090.876    11279.397    22370.273    196870.44 
   53300        266.5   0.49484089 7.6508749e-05    11275.988    11133.178    22409.166    196870.44 
   53400          267   0.49825877  0.012031886    11120.282    11210.075    22330.357    196870.44 
   53500        267.5   0.49726905 0.0074540997    11145.655    11187.808    22333.463    196870.44 
   53600          268   0.49646262 0.0096134376     11162.26    11169.664    22331.924    196870.44 
   53700        268.5   0.49326488 0.0032927271    11158.479     11097.72    22256.199    196870.44 
   53800          269   0.49565483 0.00031458633    11176.613     11151.49    22328.103    196870.44 
   53900        269.5   0.49568306 0.0048596601    11214.646    11152.125    22366.771    196870.44 
   54000          270   0.50048503 0.0021094335     11166.74    11260.163    22426.903    196870.44 
   54100        270.5   0.49734968 -0.0016202581    11253.964    11189.622    22443.585    196870.44 
   54200          271   0.49928727 -0.0019721567    11288.775    11233.215    22521.989    196870.44 
   54300        271.5   0.49964311 0.0026667446      11158.9     11241.22     22400.12    196870.44 
   54400          272   0.49136952 0.0063701773    11099.743    11055.077     22154.82    196870.44 
   54500        272.5   0.49480934 0.0068004241    11106.696    11132.468    22239.164    196870.44 
   54600          273   0.49939521  0.004004316    11140.789    11235.643    22376.432    196870.44 
   54700        273.5   0.49039661 0.0011344731    11332.784    11033.188    22365.973    196870.44 
   54800          274   0.50219355   0.01138577    11218.363    11298.602    22516.964    196870.44 
   54900        274.5   0.50400514  0.014908218    11131.405     11339.36    22470.765    196870.44 
   55000          275   0.49803325 0.0049469285     11371.03    11205.001    22576.031    196870.44 
   55100        275.5   0.50082876 0.0031075195    11139.948    11267.896    22407.844    196870.44 
   55200          276   0.49799706 -0.0030748043    11189.112    11204.187    22393.299    196870.44 
   55300        276.5    0.4953961 -0.0013811862     11198.66    11145.669    22344.329    196870.44 
   55400          277   0.49746138 0.0062747601     11210.78    11192.135    22402.915    196870.44 
   55500        277.5   0.49584964  0.012205314    11151.992    11155.873    22307.865    196870.44 
   55600          278   0.49636648  0.014111724    11202.371    11167.501    22369.872    196870.44 
   55700        278.5   0.49797453  0.003688185     11324.25     11203.68     22527.93    196870.44 
   55800          279   0.50124833 -0.0070139922    11349.663    11277.335    22626.998    196870.44 
   55900        279.5    0.5067494 -0.0018079375    11212.513    11401.101    22613.614    196870.44 
   56000          280   0.49823172  0.013067876    11219.336    11209.466    22428.802    196870.44 
   56100        280.5   0.50571996   0.01008467     11042.27    11377.941     22420.21    196870.44 
   56200          281   0.49798348  0.006804273    11333.043    11203.881    22536.924    196870.44 
   56300        281.5   0.50054398 0.00052260008    11325.524    11261.489    22587.012    196870.44 
   56400          282   0.49561631 -0.0047856532    11204.693    11150.623    22355.316    196870.44 
   56500        282.5   0.49844796 0.00080281034    11111.185    11214.331    22325.516    196870.44 
   56600          283   0.49756189 0.0044119948    11082.222    11194.396    22276.619    196870.44 
   56700        283.5   0.49623565 0.0046804205    11278.775    11164.558    22443.333    196870.44 
   56800          284   0.50379078 0.0048312801    11222.683    11334.537     22557.22    196870.44 
   56900        284.5   0.49968373 0.0029949876    11288.904    11242.134    22531.039    196870.44 
   57000          285   0.49608005 -0.00024110344    11236.408    11161.057    22397.465    196870.44 
   57100        285.5   0.49228394 0.0042632331    11221.372     11075.65    22297.022    196870.44 
   57200          286   0.49406455 0.0049333461    11228.923    11115.711    22344.634    196870.44 
   57300        286.5   0.50113531  0.005544321    11074.824    11274.793    22349.617    196870.44 
   57400          287   0.49655554 0.0048636959    11240.174    11171.755    22411.928    196870.44 
   57500        287.5   0.49918854 0.0091073229    11223.092    11230.993    22454.086    196870.44 
   57600          288   0.49969307 0.0061556163    11264.475    11242.345    22506.819    196870.44 
   57700        288.5   0.50498464   0.01248403    11139.527    11361.397    22500.924    196870.44 
   57800          289   0.50270089 0.0030612014    11210.002    11310.016    22520.018    196870.44 
   57900        289.5   0.50535014 -0.00011505407    11246.024     11369.62    22615.644    196870.44 
   58000          290   0.50601849 0.0037425833    11225.405    11384.657    22610.062    196870.44 
   58100        290.5   0.50061962 0.0045800129    11333.943    11263.191    22597.134    196870.44 
   58200          291   0.50619394 0.0084980061    11183.243    11388.604    22571.848    196870.44 
   58300        291.5   0.50104344 0.0088260093    11244.054    11272.726     22516.78    196870.44 
   58400          292   0.50196962  0.004926142    11154.863    11293.564    22448.426    196870.44 
   58500        292.5   0.50073436 0.0020290088    11199.814    11265.772    22465.586    196870.44 
   58600          293   0.49612595 0.0019021967     11212.84     11162.09    22374.929    196870.44 
   58700        293.5   0.49778016 -0.00065316129    11043.771    11199.307    22243.078    196870.44 
   58800          294   0.49553088 0.0020462383    11202.311    11148.701    22351.013    196870.44 
   58900        294.5   0.49395641 0.0062664303    11117.039    11113.278    22230.317    196870.44 
   59000          295   0.49617771  0.011784723    11124.542    11163.254    22287.796    196870.44 
   59100        295.5    0.4944178  0.013633601    11250.081    11123.659    22373.739    196870.44 
   59200          296   0.50451029  0.010917866    11219.404    11350.725    22570.129    196870.44 
   59300        296.5   0.50065405 -0.0034953856    11271.266    11263.965    22535.231    196870.44 
   59400          297   0.50773147 0.0006931267      11118.3    11423.197    22541.497    196870.44 
   59500        297.5   0.50521581   0.01086386    11228.379    11366.598    22594.977    196870.44 
   59600          298   0.49859264 0.0094323079    11232.932    11217.587    22450.518    196870.44 
   59700        298.5   0.50305774 0.0091756483    11134.644    11318.045    22452.689    196870.44 
   59800          299   0.50395624 0.0069068827    11189.576    11338.259    22527.836    196870.44 
   59900        299.5   0.49946236 0.0040875027    11266.917    11237.154    22504.071    196870.44 
   60000          300   0.49996574 0.0081483085    11238.895    11248.479    22487.375    196870.44 
   60100        300.5   0.50091437 0.0004736656    11201.721    11269.822    22471.543    196870.44 
   60200          301   0.49384847 0.0012072189    11283.204     11110.85    22394.054    196870.44 
   60300        301.5   0.50094041 0.0054898443    11218.189    11270.408    22488.597    196870.44 
   60400          302   0.49574077 0.0071196929    11323.444    11153.424    22476.867    196870.44 
   60500        302.5   0.49976032 0.0089624427    11169.976    11243.858    22413.834    196870.44 
   60600          303   0.49965201  0.011203034    11304.961    11241.421    22546.381    196870.44 
   60700        303.5   0.50255822  0.010974845     11319.13    11306.806    22625.936    196870.44 
   60800          304   0.50447485 0.00064361773    11112.315    11349.927    22462.242    196870.44 
   60900        304.5   0.49858166 -0.0012493238     11179.15    11217.339     22396.49    196870.44 
   61000          305   0.49869344 0.0002242366    11254.532    11219.854    22474.386    196870.44 
   61100        305.5   0.49946642 0.0051983488    11206.455    11237.245      22443.7    196870.44 
   61200          306   0.49983221 0.0031407212    11235.051    11245.475    22480.526    196870.44 
   61300        306.5   0.49792106 0.0047764603    11328.203    11202.477     22530.68    196870.44 
   61400          307   0.49861055  0.010581236    11203.048    11217.989    22421.037    196870.44 
   61500        307.5   0.49572743 0.0061496373    11244.041    11153.124    22397.164    196870.44 
   61600          308   0.50092341  0.001795164    11156.082    11270.025    22426.107    196870.44 
   61700        308.5   0.50234067 0.0055389957    11200.267    11301.911    22502.179    196870.44 
   61800          309   0.50240356 0.0013827588    11270.893    11303.326    22574.219    196870.44 
   61900        309.5   0.49768085 0.0073313894    11245.641    11197.073    22442.714    196870.44 
   62000          310   0.50047215 0.0082679727    11246.023    11259.873    22505.896    196870.44 
   62100        310.5   0.50139779 0.0059110085    11236.186    11280.698    22516.884    196870.44 
   62200          311   0.49774776 0.0055538436     11315.82    11198.578    22514.398    196870.44 
   62300        311.5   0.50479657 0.0068048743    11249.626    11357.166    22606.791    196870.44 
   62400          312    0.5043514 0.0086607164    11246.817     11347.15    22593.967    196870.44 
   62500        312.5   0.49832283  0.011121782    11179.881    11211.516    22391.397    196870.44 
   62600          313   0.50259058 0.0089344584    11156.361    11307.534    22463.895    196870.44 
   62700        313.5   0.50139052 -0.00079611498    11210.787    11280.535    22491.322    196870.44 
   62800          314   0.50217454 0.0028226408    11280.906    11298.174     22579.08    196870.44 
   62900        314.5   0.50132348  0.011021343    11195.761    11279.026    22474.788    196870.44 
   63000          315    0.5007458 0.0055540471    11215.795    11266.029    22481.824    196870.44 
   63100        315.5   0.50267369  0.004019551    11148.025    11309.404    22457.429    196870.44 
   63200          316   0.50188716 0.0088000586    11180.674    11291.708    22472.382    196870.44 
   63300        316.5    0.5016488 0.0012357693    11190.162    11286.346    22476.508    196870.44 
   63400          317   0.50201395  0.004005297     11247.63    11294.561    22542.191    196870.44 
   63500        317.5   0.49450439 0.0016581748     11163.12    11125.607    22288.727    196870.44 
   63600          318   0.49721958 -0.006477919    11265.587    11186.695    22452.282    196870.44 
   63700        318.5   0.50179037 0.0010633997    11120.823    11289.531    22410.353    196870.44 
   63800          319   0.49960599 0.0096052655    11233.302    11240.385    22473.687    196870.44 
   63900        319.5   0.49666168  0.011928463    11191.776    11174.143    22365.919    196870.44 
   64000          320   0.50199627  0.005785244    11133.793    11294.163    22427.956    196870.44 
   64100        320.5   0.50319389 -8.4566884e-05     11218.14    11321.108    22539.247    196870.44 
   64200          321   0.50214511 0.0014268058    11158.341    11297.512    22455.852    196870.44 
   64300        321.5   0.50632522 0.0013337261    11227.744    11391.558    22619.302    196870.44 
   64400          322   0.50405209 0.0081668286    11174.675    11340.416    22515.091    196870.44 
   64500        322.5   0.49365527  0.011909839    11360.439    11106.503    22466.942    196870.44 
   64600          323   0.49610721  0.011993639    11359.696    11161.668    22521.364    196870.44 
   64700        323.5   0.50402741 0.0037559337    11155.641    11339.861    22495.501    196870.44 
   64800          324    0.4943237 -0.0016133422     11329.56    11121.542    22451.101    196870.44 
   64900        324.5   0.49721676 -0.0010763721     11233.44    11186.631    22420.071    196870.44 
   65000          325   0.49689353 0.0034192364    11251.166    11179.359    22430.526    196870.44 
   65100        325.5   0.50301694 0.00052546401    11222.201    11317.127    22539.328    196870.44 
   65200          326   0.50220399 0.0032962736     11169.96    11298.836    22468.797    196870.44 
   65300        326.5   0.50155172 0.0046710048    11297.841    11284.161    22582.002    196870.44 
   65400          327   0.49598546 0.0065843214    11279.962    11158.929    22438.891    196870.44 
   65500        327.5    0.4942273 0.0058743698    11315.733    11119.373    22435.106    196870.44 
   65600          328   0.50041769 0.00089508427    11185.764    11258.647    22444.411    196870.44 
   65700        328.5    0.5012175 0.00052612904    11365.896    11276.642    22642.538    196870.44 
   65800          329   0.50501702 0.0054962222    11128.831    11362.126    22490.957    196870.44 
   65900        329.5   0.49998199 0.0031767476    11173.684    11248.845    22422.529    196870.44 
   66000          330   0.49749757 0.0037431986    11165.332    11192.949    22358.281    196870.44 
   66100        330.5   0.50051189 0.0071627271    11209.221    11260.767    22469.988    196870.44 
   66200          331   0.50455547  0.010817696    11185.755    11351.741    22537.497    196870.44 
   66300        331.5   0.50566923  0.009427076    11309.626    11376.799    22686.425    196870.44 
   66400          332   0.50597957 0.0088984529    11210.054    11383.781    22593.836    196870.44 
   66500        332.5   0.50057318 0.0075916921    11187.054    11262.146      22449.2    196870.44 
   66600          333   0.49582601 -0.0021148149    11235.084    11155.341    22390.426    196870.44 
   66700        333.5    0.5002654 0.00021945209    11152.673    11255.221    22407.894    196870.44 
   66800          334     0.500896 0.0041385722    11162.866    11269.409    22432.274    196870.44 
   66900        334.5   0.50484275 0.0064308057     11322.91    11358.205    22681.115    196870.44 
   67000          335   0.50370865 0.0064918649    11299.372    11332.689    22632.061    196870.44 
   67100        335.5   0.49819498 0.0057329266    11336.154     11208.64    22544.794    196870.44 
   67200          336   0.49825289 0.0028561427    11250.766    11209.943    22460.709    196870.44 
   67300        336.5    0.4969656  0.002272751    11247.608    11180.981    22428.589    196870.44 
   67400          337   0.49712104 0.0015963201    11257.591    11184.478    22442.069    196870.44 
   67500        337.5   0.50298433 -0.0010235867    11166.354    11316.393    22482.747    196870.44 
   67600          338   0.49635287 0.0032922084    11139.963    11167.195    22307.158    196870.44 
   67700        338.5   0.49699705 0.0035904514     11214.46    11181.688    22396.148    196870.44 
   67800          339   0.49428708 -0.0020678987    11188.907    11120.718    22309.625    196870.44 
   67900        339.5   0.49903059 0.0033516004    11288.692     11227.44    22516.132    196870.44 
   68000          340      0.50373  0.013535211    11214.706    11333.169    22547.875    196870.44 
   68100        340.5   0.50344992 0.0098745532    11173.869    11326.868    22500.737    196870.44 
   68200          341   0.50295801 0.0043514689    11255.654    11315.801    22571.455    196870.44 
   68300        341.5   0.50207758 0.0010501388    11268.981    11295.992    22564.973    196870.44 
   68400          342   0.50445974 0.0023939686    11278.564    11349.587    22628.151    196870.44 
   68500        342.5   0.49691791 0.0030188643     11252.01    11179.908    22431.918    196870.44 
   68600          343   0.49995572 0.0021062882    11222.804    11248.254    22471.057    196870.44 
   68700        343.5   0.49713756 0.0032246682    11152.848    11184.849    22337.697    196870.44 
   68800          344   0.49867779 0.0033057825    11118.032    11219.502    22337.534    196870.44 
   68900        344.5   0.49878595  0.011368923     11057.67    11221.936    22279.605    196870.44 
   69000          345   0.49893933  0.010857329    11133.453    11225.387     22358.84    196870.44 
   69100        345.5   0.49904554 0.0082877258    11166.247    11227.776    22394.023    196870.44 
   69200          346   0.49716275  0.004310617    11151.265    11185.416    22336.681    196870.44 
   69300        346.5   0.49947801   0.00289869    11173.047    11237.506    22410.553    196870.44 
   69400          347   0.49707541 0.0061617859    11245.242    11183.451    22428.693    196870.44 
   69500        347.5   0.49373761 0.0041206046    11191.476    11108.356    22299.831    196870.44 
   69600          348   0.50232026  0.006181588    11132.572    11301.452    22434.024    196870.44 
   69700        348.5   0.49695922 0.0049379305    11210.382    11180.837    22391.219    196870.44 
   69800          349   0.49803152 0.0015881027    11286.791    11204.962    22491.753    196870.44 
   69900        349.5   0.49345903 0.0049392757    11238.189    11102.088    22340.277    196870.44 
   70000          350   0.49895806  0.011949939    11060.997    11225.808    22286.805    196870.44 
   70100        350.5   0.50060284 0.0086126076    11162.036    11262.813     22424.85    196870.44 
   70200          351   0.49500854 0.0063041077    11223.773     11136.95    22360.723    196870.44 
   70300        351.5   0.50213423  0.007889386    11262.494    11297.267    22559.761    196870.44 
   70400          352   0.50049266 -0.0022141235    11138.811    11260.334    22399.145    196870.44 
   70500        352.5   0.49837741 -0.0039175098    11316.862    11212.744    22529.606    196870.44 
   70600          353   0.50280241 -0.0037492034    11275.117      11312.3    22587.417    196870.44 
   70700        353.5   0.50105896 -0.0014765088    11297.907    11273.075    22570.982    196870.44 
   70800          354   0.49877923 0.0049582302    11213.153    11221.785    22434.937    196870.44 
   70900        354.5   0.49832807 0.0039690752    11313.003    11211.634    22524.637    196870.44 
   71000          355   0.50126711 -0.0018467364    11250.569    11277.758    22528.327    196870.44 
   71100        355.5   0.49694216 -0.0043377767    11303.623    11180.453    22484.076    196870.44 
   71200          356   0.50133624  0.001116927    11237.874    11279.313    22517.187    196870.44 
   71300        356.5   0.49839835  0.004906797    11295.643    11213.215    22508.858    196870.44 
   71400          357    0.4989572 0.0041456662    11173.125    11225.789    22398.914    196870.44 
   71500        357.5   0.50178467 0.0049675216    11123.248    11289.402     22412.65    196870.44 
   71600          358   0.49844404 0.00038680285     11161.46    11214.243    22375.703    196870.44 
   71700        358.5    0.5012644 0.0030262141    11224.722    11277.697    22502.419    196870.44 
   71800          359   0.49742459 0.0041952128    11378.126    11191.307    22569.433    196870.44 
   71900        359.5   0.50179816 0.0094155482    11238.457    11289.706    22528.163    196870.44 
   72000          360   0.50432427 0.0045178003    11121.361     11346.54      22467.9    196870.44 
   72100        360.5   0.49684772 -0.0013178152    11156.419    11178.328    22334.747    196870.44 
   72200          361   0.49462131 -0.0039089489    11287.483    11128.238     22415.72    196870.44 
   72300        361.5   0.50147402 0.0054346729    11196.906    11282.413    22479.319    196870.44 
   72400          362   0.49886316  0.014060431    11210.167    11223.673     22433.84    196870.44 
   72500        362.5   0.49962607  0.008456604    11273.039    11240.837    22513.876    196870.44 
   72600          363   0.50156171 -0.0029209111    11307.246    11284.386    22591.633    196870.44 
   72700        363.5     0.505558 0.0060755998    11279.438    11374.297    22653.735    196870.44 
   72800          364    0.4999772 -0.00035473878    11144.484    11248.737    22393.221    196870.44 
   72900        364.5   0.49511382 0.0015102546    11261.675    11139.318    22400.993    196870.44 
   73000          365   0.49728121 0.0085584222    11192.852    11188.081    22380.933    196870.44 
   73100        365.5   0.50139848  0.010054248     11211.73    11280.714    22492.444    196870.44 
   73200          366   0.49922559 0.0064863694    11311.834    11231.827    22543.661    196870.44 
   73300        366.5   0.50300141  0.011862701    11131.198    11316.777    22447.975    196870.44 
   73400          367   0.49874101 0.0062837752     11260.66    11220.925    22481.585    196870.44 
   73500        367.5   0.49868158 -5.9927268e-05    11164.109    11219.588    22383.696    196870.44 
   73600          368   0.49772908 -0.0060712636    11129.482    11198.158     22327.64    196870.44 
   73700        368.5   0.49180525 -0.0024058123    11310.369     11064.88    22375.249    196870.44 
   73800          369   0.50095714 0.0023857674    11219.829    11270.784    22490.614    196870.44 
   73900        369.5    0.4984991  0.011085154    11251.482    11215.482    22466.964    196870.44 
   74000          370   0.49946906 0.0082637249    11203.479    11237.305    22440.784    196870.44 
   74100        370.5   0.50218332 -0.0013271304    11209.274    11298.371    22507.646    196870.44 
   74200          371   0.50061001 -0.00041877736    11116.747    11262.974    22379.722    196870.44 
[...]
  588300       2941.5   0.50240277 0.0088607553    11166.037    11303.309    22469.346    196870.44 
  588400         2942   0.49829235 0.00053531609    11236.118     11210.83    22446.948    196870.44 
  588500       2942.5   0.50556529 -0.0030100092    11163.975    11374.461    22538.435    196870.44 
  588600         2943   0.50340741  0.001431152    11246.004    11325.912    22571.916    196870.44 
  588700       2943.5   0.50073803  0.010467075    11163.338    11265.855    22429.192    196870.44 
  588800         2944   0.50311945 0.0051960643    11066.962    11319.433    22386.395    196870.44 
  588900       2944.5   0.50504024 0.0020908705    11079.215    11362.648    22441.863    196870.44 
  589000         2945   0.49686192  -0.00257176    11125.313    11178.648    22303.961    196870.44 
  589100       2945.5   0.50308306 0.0012252073    11205.923    11318.614    22524.537    196870.44 
  589200         2946   0.50655164 0.0053482686    11254.098    11396.652     22650.75    196870.44 
  589300       2946.5   0.50269777  0.015796622    11228.739    11309.946    22538.684    196870.44 
  589400         2947   0.50021217  0.010647766    11232.442    11254.024    22486.466    196870.44 
  589500       2947.5   0.50273571 0.0022694294    11263.719    11310.799    22574.518    196870.44 
  589600         2948   0.50354952 -0.0082615522     11205.31    11329.109    22534.418    196870.44 
  589700       2948.5   0.50283146 -0.0067805694     11180.25    11312.954    22493.204    196870.44 
  589800         2949   0.49990666 0.0025825046     11175.44     11247.15     22422.59    196870.44 
  589900       2949.5   0.50144992  0.008950859    11155.912    11281.871    22437.783    196870.44 
  590000         2950   0.50124019 0.0039931903    11286.427    11277.152     22563.58    196870.44 
  590100       2950.5   0.49180635 0.0014181856    11322.875    11064.905     22387.78    196870.44 
  590200         2951   0.49665467 0.0058230693    11243.253    11173.985    22417.238    196870.44 
  590300       2951.5   0.50122998  0.013378631    11165.657    11276.923    22442.579    196870.44 
  590400         2952   0.50261103  0.010253393    11250.892    11307.994    22558.887    196870.44 
  590500       2952.5   0.50435377 -0.0036347266    11208.809    11347.203    22556.013    196870.44 
  590600         2953   0.50048485 -0.0045768732    11198.405    11260.158    22458.564    196870.44 
  590700       2953.5   0.50088558 -0.0022330243    11191.612    11269.174    22460.787    196870.44 
  590800         2954   0.49788044 0.0060441681    11261.277    11201.563     22462.84    196870.44 
  590900       2954.5   0.49662201  0.012396011    11214.508     11173.25    22387.758    196870.44 
  591000         2955   0.49863054 0.00078887829    11134.472    11218.439    22352.911    196870.44 
  591100       2955.5   0.50113459 0.0020872743    11160.257    11274.777    22435.034    196870.44 
  591200         2956   0.50256586 -0.0056668325     11253.57    11306.978    22560.548    196870.44 
  591300       2956.5   0.50497025 -0.002352871    11207.607    11361.073     22568.68    196870.44 
  591400         2957   0.50472623 -0.002982536    11312.312    11355.583    22667.895    196870.44 
  591500       2957.5   0.50292206 0.0025719738    11222.299    11314.992     22537.29    196870.44 
  591600         2958   0.50266365 0.0045699483    11271.201    11309.178    22580.379    196870.44 
  591700       2958.5   0.50403581  0.002184803    11321.078     11340.05    22661.127    196870.44 
  591800         2959   0.50004139 -0.00052759764    11304.508    11250.181     22554.69    196870.44 
  591900       2959.5   0.49586761 0.0034455021    11327.114    11156.277    22483.392    196870.44 
  592000         2960   0.49779158 0.0042288158    11122.322    11199.564    22321.885    196870.44 
  592100       2960.5   0.50435899 0.0062499108    11096.585    11347.321    22443.905    196870.44 
  592200         2961   0.49369538 0.0056131561    11182.087    11107.405    22289.493    196870.44 
  592300       2961.5   0.49913671 0.0021705237    11212.074    11229.827    22441.902    196870.44 
  592400         2962   0.49657161 0.0014746813    11172.671    11172.116    22344.788    196870.44 
  592500       2962.5   0.49749091 0.0075745304    11126.821    11192.799    22319.621    196870.44 
  592600         2963   0.49677226 0.0069979064    11275.759    11176.631     22452.39    196870.44 
  592700       2963.5   0.49963648 0.00022708074    11258.733    11241.071    22499.804    196870.44 
  592800         2964   0.50368304 -0.003958153    11078.131    11332.113    22410.244    196870.44 
  592900       2964.5    0.5024831 0.0012480371    11262.034    11305.116     22567.15    196870.44 
  593000         2965   0.49776904 0.0098474586    11292.629    11199.057    22491.686    196870.44 
  593100       2965.5   0.50112926  0.012677266    11299.573    11274.657    22574.229    196870.44 
  593200         2966   0.49786608 0.0042217884    11294.364     11201.24    22495.604    196870.44 
  593300       2966.5   0.50394372 -0.00045092497    11199.579    11337.978    22537.557    196870.44 
  593400         2967   0.50044656 0.0022677422    11234.708    11259.297    22494.005    196870.44 
  593500       2967.5   0.50080995 -0.0023552905    11255.638    11267.473     22523.11    196870.44 
  593600         2968    0.5018746 0.0012262206    11278.286    11291.426    22569.712    196870.44 
  593700       2968.5   0.50174209  0.003633545    11280.932    11288.444    22569.376    196870.44 
  593800         2969   0.50123366 0.0049836804    11218.673    11277.006    22495.679    196870.44 
  593900       2969.5   0.50003952 0.0041636372    11199.526    11250.139    22449.665    196870.44 
  594000         2970   0.49680063 0.0042333769    11235.405    11177.269    22412.674    196870.44 
  594100       2970.5   0.49906032 0.0051092925    11247.062    11228.109     22475.17    196870.44 
  594200         2971   0.49873215 0.0048092754    11247.382    11220.725    22468.107    196870.44 
  594300       2971.5   0.50211949  0.010417193    11203.475    11296.935     22500.41    196870.44 
  594400         2972   0.50367544 0.0096318887    11310.146    11331.942    22642.088    196870.44 
  594500       2972.5   0.49843552 -0.00045672088    11354.583    11214.052    22568.635    196870.44 
  594600         2973   0.49749647 0.0018311644    11216.566    11192.924     22409.49    196870.44 
  594700       2973.5   0.50046238 0.0070824044    11188.464    11259.653    22448.117    196870.44 
  594800         2974   0.50331431 0.0089336815    11279.302    11323.817    22603.119    196870.44 
  594900       2974.5   0.49660615 0.0062923174    11323.698    11172.893    22496.592    196870.44 
  595000         2975   0.50077653 0.0035454868    11261.643    11266.721    22528.364    196870.44 
  595100       2975.5   0.49775533 0.0033073543     11252.93    11198.748    22451.679    196870.44 
  595200         2976   0.49835186 -0.0014304729    11189.618    11212.169    22401.787    196870.44 
  595300       2976.5   0.50153534 -0.0036916312    11094.794    11283.793    22378.587    196870.44 
  595400         2977   0.49932588 0.0022238172    11184.877    11234.083    22418.961    196870.44 
  595500       2977.5   0.49506717 0.0099063182    11230.464    11138.269    22368.732    196870.44 
  595600         2978   0.50530716   0.01025147    11205.638    11368.653    22574.291    196870.44 
  595700       2978.5   0.50543931 0.0081457756    11231.181    11371.626    22602.807    196870.44 
  595800         2979   0.50022744  0.005773197    11317.616    11254.367    22571.983    196870.44 
  595900       2979.5   0.50381932 0.0070447878    11078.347    11335.179    22413.526    196870.44 
  596000         2980    0.5045452 -0.0010910853    11089.312     11351.51    22440.822    196870.44 
  596100       2980.5    0.5049834 0.0067713753    11170.534    11361.369    22531.903    196870.44 
  596200         2981   0.50177036 0.0047074901    11217.211    11289.081    22506.291    196870.44 
  596300       2981.5   0.50327887 0.0098981982    11090.484     11323.02    22413.503    196870.44 
  596400         2982   0.49950384  0.014351717    11289.193    11238.087     22527.28    196870.44 
  596500       2982.5   0.50661808 0.0078953766    11177.025    11398.147    22575.172    196870.44 
  596600         2983   0.49883203 0.0074580403    11221.257    11222.972     22444.23    196870.44 
  596700       2983.5   0.50130164 0.0025973524    11240.721    11278.535    22519.256    196870.44 
  596800         2984   0.49646595 -9.0346511e-05    11242.384    11169.739    22412.123    196870.44 
  596900       2984.5   0.50304405 -0.0025025413    11150.975    11317.737    22468.712    196870.44 
  597000         2985   0.49844212 0.00079669737    11134.486      11214.2    22348.686    196870.44 
  597100       2985.5    0.4945954 0.0034928617    11116.512    11127.655    22244.166    196870.44 
  597200         2986   0.49251579 0.0068591866    11134.341    11080.866    22215.207    196870.44 
  597300       2986.5   0.49995871 0.0030279316    11241.921    11248.321    22490.242    196870.44 
  597400         2987   0.50135662 0.0014216717    11255.519    11279.772    22535.291    196870.44 
  597500       2987.5   0.49969827 0.0050421389    11289.563    11242.462    22532.024    196870.44 
  597600         2988   0.50437437  0.008708966    11263.305    11347.667    22610.972    196870.44 
  597700       2988.5   0.50706326 0.0065552665    11235.267    11408.163     22643.43    196870.44 
  597800         2989   0.49958212 0.0062635433    11251.384    11239.848    22491.233    196870.44 
  597900       2989.5   0.50394289 0.0085638075    11214.238    11337.959    22552.197    196870.44 
  598000         2990   0.49927583 0.0062090071    11286.936    11232.957    22519.894    196870.44 
  598100       2990.5   0.50532296 -0.0033810386    11226.527    11369.009    22595.536    196870.44 
  598200         2991   0.50616667 -0.0044117548    11189.299    11387.991     22577.29    196870.44 
  598300       2991.5   0.50051008  0.008042658    11282.786    11260.726    22543.512    196870.44 
  598400         2992   0.49836193  0.013045796    11211.854    11212.396     22424.25    196870.44 
  598500       2992.5   0.50016975 0.0060531891    11301.825    11253.069    22554.894    196870.44 
  598600         2993   0.50322842 0.0029687533    11191.116    11321.885        22513    196870.44 
  598700       2993.5   0.49795193 -0.0015714515    11260.045    11203.172    22463.216    196870.44 
  598800         2994   0.49935052 -0.00077696582    11166.409    11234.638    22401.046    196870.44 
  598900       2994.5   0.49780528 0.0045350207    11145.565    11199.872    22345.437    196870.44 
  599000         2995   0.50208381 0.0044488494    11217.877    11296.133    22514.009    196870.44 
  599100       2995.5   0.50471869 0.0058619322    11271.602    11355.414    22627.015    196870.44 
  599200         2996   0.49822193 0.0019441946    11241.591    11209.246    22450.837    196870.44 
  599300       2996.5    0.5009183 0.0030860896    11277.854     11269.91    22547.764    196870.44 
  599400         2997   0.50277546 0.0093328395    11212.294    11311.694    22523.988    196870.44 
  599500       2997.5   0.49611291 0.00099958125    11249.231    11161.796    22411.028    196870.44 
  599600         2998   0.49930353 -0.003729573    11279.696     11233.58    22513.276    196870.44 
  599700       2998.5   0.49587233 0.0057590007    11273.908    11156.384    22430.291    196870.44 
  599800         2999   0.50034242  0.010649333    11237.078    11256.954    22494.032    196870.44 
  599900       2999.5   0.50168252 0.0071097135    11099.232    11287.104    22386.337    196870.44 
  600000         3000   0.49534143 0.0075927829    11285.436    11144.439    22429.875    196870.44 
  600100       3000.5   0.49949968 -0.0014673687    11195.219    11237.993    22433.213    196870.44 
  600200         3001    0.4937791 -0.0018731193     11277.01    11109.289    22386.299    196870.44 
  600300       3001.5    0.4955901   0.00174002    11119.779    11150.034    22269.812    196870.44 
  600400         3002   0.49925542 0.0069903254    11175.953    11232.498    22408.451    196870.44 
  600500       3002.5   0.50467403  0.011738737    11178.339    11354.409    22532.747    196870.44 
  600600         3003   0.49730602 0.0018216369    11306.369     11188.64    22495.008    196870.44 
  600700       3003.5   0.49673005 -0.0015070937     11247.45    11175.681    22423.131    196870.44 
  600800         3004   0.50171056 -0.0046502813    11155.348    11287.735    22443.083    196870.44 
  600900       3004.5   0.49392903 0.0020791811     11288.35    11112.662    22401.012    196870.44 
  601000         3005   0.49790595  0.012706296    11231.304    11202.137    22433.441    196870.44 
  601100       3005.5   0.49594173  0.017415493    11212.454    11157.945    22370.399    196870.44 
  601200         3006   0.49804183 0.0058193828    11212.469    11205.194    22417.663    196870.44 
  601300       3006.5   0.49946017 -0.0026253865    11141.803    11237.105    22378.908    196870.44 
  601400         3007    0.5035678 0.0011130496    11265.847     11329.52    22595.368    196870.44 
  601500       3007.5   0.50525684 -0.0056515517    11277.232    11367.521    22644.753    196870.44 
  601600         3008    0.5038945 -0.0012322959    11280.062     11336.87    22616.933    196870.44 
  601700       3008.5   0.49897713 0.0042778586    11335.312    11226.237    22561.549    196870.44 
  601800         3009   0.50224237 0.0075056973    11329.589      11299.7    22629.289    196870.44 
  601900       3009.5   0.50006861  0.008033165    11242.395    11250.794    22493.188    196870.44 
  602000         3010   0.49941564 0.0058647669    11309.691    11236.103    22545.794    196870.44 
  602100       3010.5   0.50236352 0.0049393647    11166.694    11302.426     22469.12    196870.44 
  602200         3011   0.49942909  0.004037018    11195.315    11236.405     22431.72    196870.44 
  602300       3011.5    0.5037024 0.0066569434    11143.206    11332.548    22475.754    196870.44 
  602400         3012   0.50328145 0.0029441712     11169.75    11323.078    22492.828    196870.44 
  602500       3012.5   0.50074345  0.012223159    11376.915    11265.977    22642.891    196870.44 
  602600         3013   0.49846122  0.010302586    11185.709     11214.63    22400.339    196870.44 
  602700       3013.5   0.50128711 0.0032576315    11139.822    11278.208     22418.03    196870.44 
  602800         3014   0.49646723 -0.0021417902    11327.398    11169.768    22497.166    196870.44 
  602900       3014.5   0.50061937 -0.0027436955    11186.606    11263.185     22449.79    196870.44 
  603000         3015   0.50120491 0.0019382773     11200.96    11276.359    22477.319    196870.44 
  603100       3015.5   0.50088679 0.0060790526    11249.542    11269.201    22518.744    196870.44 
  603200         3016   0.50357807  0.013834188    11205.713    11329.751    22535.464    196870.44 
  603300       3016.5   0.50237678  0.014467509    11159.273    11302.724    22461.997    196870.44 
  603400         3017   0.50237088 0.0040932165    11230.835    11302.591    22533.426    196870.44 
  603500       3017.5   0.50189952 -0.0048470827    11250.474    11291.986     22542.46    196870.44 
  603600         3018   0.50231054 -0.0024242307    11243.726    11301.234     22544.96    196870.44 
  603700       3018.5    0.5050552  0.002069369    11182.245    11362.984     22545.23    196870.44 
  603800         3019   0.50079403 0.0057499175    11255.495    11267.115     22522.61    196870.44 
  603900       3019.5   0.50137609  0.010571363    11205.258     11280.21    22485.468    196870.44 
  604000         3020   0.49610713 0.0051603109    11183.835    11161.666    22345.502    196870.44 
  604100       3020.5   0.49448174  0.004774139    11298.448    11125.097    22423.545    196870.44 
  604200         3021   0.49985112  0.004925516    11200.055      11245.9    22445.956    196870.44 
  604300       3021.5    0.5048228 0.0082970454    11194.235    11357.756    22551.991    196870.44 
  604400         3022   0.50039359 0.0034782923    11207.119    11258.105    22465.224    196870.44 
  604500       3022.5   0.49955922 0.0053449298    11198.156    11239.333    22437.489    196870.44 
  604600         3023    0.4959588 0.0063389048    11118.274    11158.329    22276.604    196870.44 
  604700       3023.5   0.49547903 0.00055306394    11123.498    11147.535    22271.033    196870.44 
  604800         3024   0.49556056 0.00090686883    11237.872    11149.369    22387.241    196870.44 
  604900       3024.5   0.49789752 0.0070647044    11208.737    11201.947    22410.684    196870.44 
  605000         3025   0.49637942 0.00046590982    11204.529    11167.792    22372.322    196870.44 
  605100       3025.5   0.49251475 0.0014674088    11111.251    11080.843    22192.094    196870.44 
  605200         3026   0.49770949 0.0059580776    11205.738    11197.717    22403.455    196870.44 
  605300       3026.5   0.49845321 0.0097518613    11284.228    11214.449    22498.678    196870.44 
  605400         3027   0.49875567 0.0041471717    11187.869    11221.255    22409.123    196870.44 
  605500       3027.5    0.4986569 -0.0033822069    11136.961    11219.032    22355.994    196870.44 
  605600         3028   0.49588008 -0.0052531718    11223.756    11156.558    22380.314    196870.44 
  605700       3028.5   0.50071084 7.9621341e-05    11244.391    11265.243    22509.634    196870.44 
  605800         3029   0.50205089 0.0038385597    11288.881    11295.392    22584.272    196870.44 
  605900       3029.5   0.50605688  0.012492177    11154.453    11385.521    22539.974    196870.44 
  606000         3030   0.49883234  0.012988377    11245.664    11222.979    22468.643    196870.44 
  606100       3030.5   0.49526266 0.0063817078    11231.531    11142.667    22374.198    196870.44 
  606200         3031   0.50375644 0.0073077611    11181.702    11333.764    22515.466    196870.44 
  606300       3031.5   0.50306267 0.0044526128    11166.397    11318.155    22484.552    196870.44 
  606400         3032   0.50396538 -0.0067778556    11266.612    11338.465    22605.077    196870.44 
  606500       3032.5   0.50667183 0.00019793922    11208.694    11399.356     22608.05    196870.44 
  606600         3033   0.50115944 0.0092941149     11214.93    11275.336    22490.266    196870.44 
  606700       3033.5   0.50127012  0.014049252    11309.833    11277.826    22587.658    196870.44 
  606800         3034   0.50559494  0.011160247    11311.316    11375.128    22686.444    196870.44 
  606900       3034.5   0.50604908 0.0052056359    11255.262    11385.345    22640.608    196870.44 
  607000         3035   0.50270238 0.0013514263    11295.877     11310.05    22605.927    196870.44 
  607100       3035.5   0.50658644  0.005228389    11338.813    11397.435    22736.248    196870.44 
  607200         3036   0.50231267 0.0033306539    11394.145    11301.282    22695.427    196870.44 
  607300       3036.5   0.50589098 0.0022742545    11269.911    11381.788    22651.699    196870.44 
  607400         3037   0.49675429 0.0013789565    11283.957    11176.226    22460.183    196870.44 
  607500       3037.5   0.49713261 -0.0016665358    11199.187    11184.738    22383.925    196870.44 
  607600         3038   0.49363916 0.0049417114    11102.047    11106.141    22208.188    196870.44 
  607700       3038.5   0.49860432 0.0067247875    11053.979    11217.849    22271.829    196870.44 
  607800         3039   0.50150495 0.0055097621    11060.541    11283.109     22343.65    196870.44 
  607900       3039.5   0.49504526 0.0012595339    11119.195