LAMMPS (3 Mar 2020)
OMP_NUM_THREADS environment is not set. Defaulting to 1 thread. (../comm.cpp:94)
  using 1 OpenMP thread(s) per MPI task
#SETUP
# Runs on the first loop only
shell del *.dump     # delete all dump files before first run CAREFUL WITH THIS
shell del restart.time*     # delete all current restart files before first run
shell lmp_serial -in in.run_setup     # first run of file, generate first restart file

#VARIABLES
variable N         equal  1000 #MUST BE SAME AS SETUP FILE FOR PHASEPLOT
variable len       equal  11  #MUST BE SAME AS SETUP FILE FOR PHASEPLOT
variable T         equal  0.5
variable t_step    equal  0.005 #originally 0.005
variable mix_steps index  50000 50000 50000 50000 50000 50000 50000 50000 50000 50000 50000
variable mix_tau   equal  ${t_step}*${mix_steps}
variable mix_tau   equal  0.005*${mix_steps}
variable mix_tau   equal  0.005*50000
variable run_steps equal  2000000 # steps to run simulation in order to reach steady state
variable run_tau   equal  ${t_step}*${run_steps} # this is the time in LJ units
variable run_tau   equal  0.005*${run_steps} 
variable run_tau   equal  0.005*2000000 
#1000 particles averages 35,000 steps per minute

#LOOP START
label loop  #start loop from here
read_restart restart.time*
  restoring atom style molecular from restart
  orthogonal box = (-50 -150 -50) to (50 150 50)
  1 by 1 by 1 MPI processor grid
  restoring pair style lj/cut from restart
  restoring bond style harmonic from restart
  restoring angle style harmonic from restart
  11000 atoms
  10000 bonds
  9000 angles
  2 = max # of 1-2 neighbors
  2 = max # of 1-3 neighbors
  4 = max # of 1-4 neighbors
  6 = max # of special neighbors
  special bonds CPU = 0.039887 secs
  read_restart CPU = 0.061836 secs
# this reads in latest restart file, * is wildcard for timestep


# THERMAL
timestep ${t_step}
timestep 0.005
thermo   100
thermo_style custom step time temp press pe ke etotal vol
thermo_modify norm no


# DUMP OUTPUT
dump  1  all custom 25000 output_T_${T}_time_*.dump id mol type x y z vx vy vz
dump  1  all custom 25000 output_T_0.5_time_*.dump id mol type x y z vx vy vz
# dumps all positions etc every N  steps
dump_modify 1 sort id

# FIX
fix 2 all nph iso ${T} ${T} 100   #changed from T = 0.5 to match variable T
fix 2 all nph iso 0.5 ${T} 100   
fix 2 all nph iso 0.5 0.5 100   
fix 3 all langevin ${T} ${T} 1 123456 #as above
fix 3 all langevin 0.5 ${T} 1 123456 
fix 3 all langevin 0.5 0.5 1 123456 
run ${mix_steps}
run 50000
Neighbor list info ...
  update every 1 steps, delay 10 steps, check yes
  max neighbors/atom: 2000, page size: 100000
  master list distance cutoff = 1.42
  ghost atom cutoff = 1.9
  binsize = 0.71, bins = 141 423 141
  1 neighbor lists, perpetual/occasional/extra = 1 0 0
  (1) pair lj/cut, perpetual
      attributes: half, newton on
      pair build: half/bin/newton
      stencil: half/bin/3d/newton
      bin: standard
Per MPI rank memory allocation (min/avg/max) = 45.8 | 45.8 | 45.8 Mbytes
Step Time Temp Press PotEng KinEng TotEng Volume 
       0            0            0 5.5007308e-06    137079.94            0    137079.94 3000000 
     100          0.5    2.5835983 0.0060407919     45397.83    42625.497    88023.327    2984696.6 
     200            1    1.4372027 -0.037672413    36495.343    23711.689    60207.031    2946015.3 
     300          1.5    1.6889794 0.0025515534    14405.104    27865.626     42270.73    2906247.7 
     400            2    1.1066233  0.016514521    13741.494    18257.624    31999.118    2870521.4 
     500          2.5   0.93578475 0.0060945269    9788.0803    15439.045    25227.125    2834361.6 
     600            3   0.70947342 -0.0085865997    9732.5192    11705.247    21437.766    2800741.6 
     700          3.5   0.61488907 -0.0096299615    8696.8439    10144.747    18841.591    2770294.2 
     800            4   0.58085604 0.0059611437    7938.9347    9583.2534    17522.188    2741547.2 
     900          4.5   0.53441344  0.003017744    7865.0745    8817.0202    16682.095    2713920.1 
    1000            5   0.52685968 0.0010047386    7381.2813    8692.3944    16073.676    2687131.6 
    1100          5.5   0.50792594 -0.0034097266    7216.7163    8380.0161    15596.732    2661150.7 
    1200            6   0.50982588 0.0005827258    7073.7827    8411.3623    15485.145    2635826.1 
    1300          6.5   0.51005452 0.0023730743    6885.5212    8415.1346    15300.656    2611145.8 
    1400            7   0.50167437 0.0012932178    6992.7635    8276.8747    15269.638    2587044.1 
    1500          7.5   0.49606554 -0.00058332215    6974.9193    8184.3373    15159.257    2563480.9 
    1600            8   0.50023794 -0.00057018321    6983.4143    8253.1757     15236.59      2540420 
    1700          8.5   0.50233601 0.00099294131    7031.2108    8287.7907    15319.001    2517830.3 
    1800            9   0.50197556 0.00026628823    6968.1661    8281.8437     15250.01    2495694.9 
    1900          9.5   0.49209948 -0.00028751696    6955.4908    8118.9033    15074.394    2473985.6 
    2000           10   0.48905387 -0.00023209823    6916.6185    8068.6553    14985.274    2452687.1 
    2100         10.5   0.49625036 0.00044984451    6914.9295    8187.3866    15102.316      2431780 
    2200           11   0.49773983 0.00090772397    6920.8482    8211.9605    15132.809    2411249.1 
    2300         11.5   0.50177202 0.00017963757    6887.6256    8278.4857    15166.111    2391080.6 
    2400           12   0.49638524 -7.3425306e-05    6954.9679    8189.6119     15144.58    2371258.2 
    2500         12.5   0.49849744 6.0362564e-05    6910.0767      8224.46    15134.537      2351772 
    2600           13   0.49194601 -1.3852186e-06     7101.273    8116.3713    15217.644      2332608 
    2700         13.5   0.50192278 0.00037782278    7056.4648     8280.973    15337.438    2313753.5 
    2800           14   0.50132563 -0.00021499048    7040.8298    8271.1209    15311.951    2295203.9 
    2900         14.5   0.50558311 -6.3989428e-05    7001.0065    8341.3629    15342.369      2276945 
    3000           15   0.49898063 0.00026417003    6955.4504     8232.432    15187.882    2258970.9 
    3100         15.5   0.49948104 0.00053439935    6894.8836    8240.6879    15135.572    2241271.5 
    3200           16   0.49827989 -0.00024413852    6996.9253    8220.8708    15217.796      2223846 
    3300         16.5    0.4966164 0.00034591254    6909.7994    8193.4257    15103.225    2206675.2 
    3400           17   0.50029164 0.00054961417    6956.8346    8254.0616    15210.896    2189756.7 
    3500         17.5   0.50525497 0.00067208482    6912.4274    8335.9491    15248.377    2173083.7 
    3600           18   0.49712478 0.00014805081    6898.3766    8201.8132     15100.19    2156653.2 
    3700         18.5   0.49864976 -0.0001057796    6837.4911    8226.9731    15064.464    2140456.7 
    3800           19   0.49971079 0.00043530213    6751.0588    8244.4785    14995.537    2124485.6 
    3900         19.5   0.49589646 0.00071602806    6886.5116    8181.5478    15068.059    2108738.4 
    4000           20   0.50142007 0.00030741225    6958.2868    8272.6791    15230.966    2093209.6 
    4100         20.5   0.50156554 -0.0010781899    6960.7647    8275.0791    15235.844      2077896 
    4200           21   0.50151667 -9.4892483e-05    7002.9692    8274.2727    15277.242    2062784.5 
    4300         21.5   0.49868388 0.00066311575    7028.4625    8227.5359    15255.998    2047873.5 
    4400           22   0.50020504 0.00021196008    6986.9898    8252.6328    15239.623    2033162.8 
    4500         22.5   0.50449387 -0.00021194799    6906.6245    8323.3922    15230.017      2018645 
    4600           23   0.49469196 0.00025927341    7040.4167    8161.6753    15202.092    2004313.9 
    4700         23.5   0.49824479 0.00068651677    7029.2767    8220.2917    15249.568    1990167.2 
    4800           24   0.50295737 0.00051092983     6941.523    8298.0422    15239.565    1976202.8 
    4900         24.5   0.50111065 -9.4464511e-05    6950.5834     8267.574    15218.157      1962417 
    5000           25    0.5037944 0.00066912515    6927.1419    8311.8518    15238.994    1948802.7 
    5100         25.5   0.50239221 0.00085724243    6963.3834    8288.7179    15252.101    1935359.2 
    5200           26   0.50288213 0.00029199698    7081.9005    8296.8009    15378.701      1922083 
    5300         26.5   0.49698348 -0.00020246866    7087.9297    8199.4819    15287.412      1908970 
    5400           27   0.50115566 -0.00057221189    6984.2452    8268.3167    15252.562    1896017.1 
    5500         27.5   0.49664462 0.00042042356    7081.6357    8193.8912    15275.527      1883218 
    5600           28   0.49504769 0.00089371167    6958.5135    8167.5443    15126.058    1870572.7 
    5700         28.5   0.49952149 -9.233875e-05    6882.7742    8241.3553    15124.129    1858079.4 
    5800           29   0.50057763 -0.0003251278    6942.1858      8258.78    15200.966    1845733.4 
    5900         29.5   0.50154809 0.00013572683    6949.3501    8274.7912    15224.141    1833533.5 
    6000           30    0.5065859 0.00084056869    7012.1967    8357.9074    15370.104    1821475.6 
    6100         30.5   0.49894223 0.00092294996    6959.6615    8231.7983     15191.46    1809556.9 
    6200           31   0.49678353 0.0005091252    6904.9359    8196.1831    15101.119    1797776.5 
    6300         31.5   0.49315994 -5.1938263e-05    6957.0793    8136.3993    15093.479    1786131.7 
    6400           32    0.4979626 0.00027266063    6851.6774     8215.636    15067.313    1774617.2 
    6500         32.5   0.49650893 0.00023370771    6891.9455    8191.6526    15083.598    1763233.7 
    6600           33   0.49579039 0.00039037618     6989.956    8179.7977    15169.754    1751977.9 
    6700         33.5   0.49657831 -0.00034362587    6940.6623    8192.7973     15133.46    1740848.8 
    6800           34   0.50039333 0.00060054844    6894.4586    8255.7394    15150.198    1729840.2 
    6900         34.5   0.49458112 0.00080162742    6959.1596    8159.8466    15119.006    1718954.3 
    7000           35   0.49099739 7.9760217e-05    7011.7653    8100.7205    15112.486    1708189.3 
    7100         35.5   0.49471244 -6.0627391e-05    6973.5882    8162.0132    15135.601    1697538.4 
    7200           36   0.50334234 -0.00031459203    6896.5055    8304.3936    15200.899    1687003.7 
    7300         36.5   0.49885111 0.00026853252    6903.6678    8230.2951    15133.963    1676583.3 
    7400           37   0.49835579 0.0009923346    6887.8919     8222.123    15110.015    1666275.4 
    7500         37.5   0.49611215 0.00029201879    6890.0497    8185.1063    15075.156    1656078.3 
    7600           38   0.49356689 0.00034397041    6946.3101    8143.1133    15089.423    1645988.5 
    7700         38.5   0.49389259 0.00046207906    6888.3643    8148.4869    15036.851    1636003.9 
    7800           39   0.49245959 0.0010005544    6909.2194    8124.8445    15034.064    1626121.7 
    7900         39.5   0.49736617 0.0005460699    6874.7319    8205.7958    15080.528    1616343.9 
    8000           40   0.49320017 -0.00021766544    6868.8069     8137.063     15005.87    1606668.8 
    8100         40.5   0.49744484 0.00027137408     6916.742    8207.0937    15123.836    1597091.3 
    8200           41   0.49398967 0.00010184072      6901.46    8150.0886    15051.549    1587612.3 
    8300         41.5    0.4900898 -0.00017394334    6870.7671    8085.7466    14956.514    1578229.6 
    8400           42    0.4958583 -0.00013716731     6966.755    8180.9181    15147.673    1568941.8 
    8500         42.5   0.49488795 0.00027011531    7022.3144    8164.9089    15187.223    1559746.8 
    8600           43   0.49733489 0.00062286023    6957.9763    8205.2798    15163.256    1550644.3 
    8700         43.5   0.49620546 0.00028769048     7069.126    8186.6458    15255.772    1541633.6 
    8800           44     0.504878 0.0006542853    7051.4536    8329.7297    15381.183    1532711.9 
    8900         44.5   0.50290617 -0.0001193532    6983.5358    8297.1975    15280.733    1523880.5 
    9000           45   0.50085787 0.00038069376    6916.1446    8263.4035    15179.548      1515135 
    9100         45.5   0.50042802 0.0010420301    6984.9388    8256.3117    15241.251    1506474.8 
    9200           46   0.49937024 0.00037071982    6996.6828    8238.8599    15235.543    1497900.4 
    9300         46.5   0.50245503 -0.00018782514    6906.6387    8289.7543    15196.393    1489408.4 
    9400           47   0.49701442 -0.00063312396    7094.9764    8199.9924    15294.969    1480997.6 
    9500         47.5   0.51336326  0.001057137    6986.0624    8469.7238    15455.786    1472665.8 
    9600           48   0.51495833 0.00063326148    6943.9402    8496.0399     15439.98    1464415.4 
    9700         48.5   0.50377565 0.00097282635    6959.3356    8311.5425    15270.878    1456241.6 
    9800           49   0.50695395 1.5310524e-05    6918.9795    8363.9797    15282.959    1448147.5 
    9900         49.5   0.49609589 0.00041953683    6973.4853     8184.838    15158.323    1440129.4 
   10000           50   0.50102927 0.00090760055     6881.843    8266.2315    15148.074    1432185.8 
   10100         50.5   0.50033295 0.00030002962    6938.5049    8254.7431    15193.248    1424317.7 
   10200           51   0.49715603 -0.00014572132    6927.4096    8202.3288    15129.738    1416524.5 
   10300         51.5   0.49554856 0.00030857784     6882.733    8175.8079    15058.541    1408801.4 
   10400           52     0.495957 0.0011047984    6943.1618    8182.5466    15125.708    1401146.4 
   10500         52.5   0.50544504 0.0011900376    6933.7604     8339.085    15272.845    1393562.8 
   10600           53   0.50170519 0.00077002081    6876.9388    8277.3831    15154.322    1386050.3 
   10700         53.5   0.49414659 0.00055144595    6953.1285    8152.6775    15105.806    1378606.9 
   10800           54   0.50176219 0.0013270415    6870.5486    8278.3235    15148.872    1371230.2 
   10900         54.5   0.49514729 0.00096304235    6976.2309    8169.1876    15145.419    1363919.4 
   11000           55   0.49425393 -0.00027531834    6951.6984    8154.4484    15106.147    1356675.7 
   11100         55.5   0.49568215 -0.0007170317    6957.7824    8178.0119    15135.794    1349496.5 
   11200           56    0.5065618 -9.6725619e-05    6899.5483    8357.5098    15257.058    1342380.4 
   11300         56.5   0.50005063  0.001328098    6950.8921    8250.0853    15200.977    1335325.9 
   11400           57   0.49984555 0.00013112166    7049.8947    8246.7019    15296.597    1328335.4 
   11500         57.5    0.4996179 -0.00043915397    6956.4896    8242.9459    15199.435    1321405.6 
   11600           58   0.50139035 0.00092429861    6959.0336    8272.1887    15231.222    1314536.1 
   11700         58.5   0.50286037 0.00022551193    7129.7386    8296.4418     15426.18    1307729.3 
   11800           59   0.50490151 -0.00032984533    7023.9966    8330.1176    15354.114    1300979.4 
   11900         59.5   0.50517082 0.00081675331    6986.0531    8334.5607    15320.614      1294287 
   12000           60    0.5007289 0.0010896573    6940.4699    8261.2758    15201.746      1287654 
   12100         60.5   0.49517402 0.00016188849     6967.595    8169.6286    15137.224    1281079.2 
   12200           61   0.50077874 4.5194085e-05    7000.3678    8262.0981    15262.466    1274559.4 
   12300         61.5   0.49668281 0.00036747741    7013.8341    8194.5214    15208.355    1268095.1 
   12400           62   0.50131504 0.0010719026    6997.0807    8270.9462    15268.027    1261685.3 
   12500         62.5   0.50203187 0.00086761939    6913.1851    8282.7728    15195.958    1255330.6 
   12600           63   0.49908291 -0.00078129377    6982.7968    8234.1193    15216.916    1249029.8 
   12700         63.5   0.50318462 0.00075828434    6910.7315    8301.7914    15212.523    1242779.4 
   12800           64   0.50245197 0.00024603617    7004.4432    8289.7039    15294.147    1236584.1 
   12900         64.5   0.50540512 0.0003233786    6959.8303    8338.4264    15298.257    1230438.2 
   13000           65   0.50390191 0.0011366543    6958.1054    8313.6257    15271.731    1224343.7 
   13100         65.5   0.50286705 -3.7590362e-05    7046.8715    8296.5521    15343.424    1218300.5 
   13200           66   0.50330338 0.00059206647    7038.4792    8303.7508     15342.23    1212305.4 
   13300         66.5   0.50291957 -0.00014766255    6941.2332    8297.4184    15238.652    1206361.7 
   13400           67    0.4979674 0.0012095158    6952.2547    8215.7152     15167.97    1200465.3 
   13500         67.5   0.49568172 0.0012543093    6903.9724    8178.0049    15081.977    1194618.3 
   13600           68   0.49745825 -0.00033358838     6856.652     8207.315    15063.967    1188819.3 
   13700         68.5   0.50097977 -8.6359656e-05    6939.2374    8265.4148    15204.652      1183066 
   13800           69   0.49294033 0.0017886588    7035.8868     8132.776    15168.663    1177358.5 
   13900         69.5   0.49787792 0.0011256358    6938.5219    8214.2388    15152.761    1171698.5 
   14000           70   0.49746484 -6.4824323e-06    6947.4517    8207.4237    15154.875    1166083.1 
   14100         70.5   0.49441095 0.00048516325    6904.1676     8157.039    15061.207    1160511.7 
   14200           71   0.49996725 0.00027409894    6913.8964    8248.7096    15162.606    1154985.3 
   14300         71.5   0.50275477 0.00021470938    6963.2022    8294.6996    15257.902    1149501.8 
   14400           72   0.50700456 0.00085181123    6918.2352    8364.8147     15283.05    1144062.3 
   14500         72.5   0.49466199 0.00036776052     6982.509    8161.1808     15143.69    1138666.2 
   14600           73   0.49752137 0.00023826705    6868.8437    8208.3563      15077.2    1133311.5 
   14700         73.5     0.494727 0.0012106338    6928.1949    8162.2534    15090.448    1127997.8 
   14800           74   0.49460749 -0.00017386456    6990.8731    8160.2816    15151.155    1122726.9 
   14900         74.5   0.49617851 0.00037180644    6982.4483    8186.2012    15168.649    1117496.5 
   15000           75   0.49659698 0.00058346534    7031.6087    8193.1052    15224.714    1112306.8 
   15100         75.5   0.49943255 0.00021317071    7013.4948     8239.888    15253.383    1107157.8 
   15200           76   0.49963581 0.00022630956    6945.1511    8243.2415    15188.393      1102048 
   15300         76.5   0.50213209 0.0002135022    6983.5127    8284.4264    15267.939    1096976.5 
   15400           77   0.50250274 0.00096330563    6976.4508    8290.5415    15266.992    1091943.2 
   15500         77.5    0.5029174 -0.00010710527    7038.4831    8297.3826    15335.866    1086949.3 
   15600           78   0.50747141 -3.0906357e-05    6999.8848     8372.517    15372.402    1081993.6 
   15700         78.5   0.51095512 0.00086023205    7146.6025     8429.993    15576.595    1077075.8 
   15800           79   0.50958149 0.00058359565    7042.1478    8407.3303    15449.478      1072194 
   15900         79.5   0.50610912 0.00090098127     7030.673    8350.0412    15380.714    1067347.9 
   16000           80   0.50840311 0.00020204195    7017.3825    8387.8887    15405.271    1062539.6 
   16100         80.5   0.50428904 0.0016969549     6965.077    8320.0128     15285.09    1057765.7 
   16200           81   0.50182785 0.00032979715    7065.0505    8279.4068    15344.457    1053028.6 
   16300         81.5    0.5019517 -0.00019566471    6961.5935    8281.4502    15243.044    1048325.4 
   16400           82   0.49916815 0.0010237523    6968.3508    8235.5258    15203.877    1043657.4 
   16500         82.5   0.49979596 0.00022285872    6936.2286    8245.8836    15182.112    1039024.4 
   16600           83   0.50411084 -4.7694634e-05    6860.2626    8317.0727    15177.335    1034425.7 
   16700         83.5    0.4981562 0.0014005475    6978.2553      8218.83    15197.085    1029860.4 
   16800           84   0.50175951 0.0022085801    6885.4996    8278.2792    15163.779    1025327.9 
   16900         84.5   0.50171676 -0.0005062525     6952.816     8277.574     15230.39    1020830.9 
   17000           85   0.50101142 -0.0006951518    6971.5564    8265.9369    15237.493    1016364.9 
   17100         85.5   0.49925951 0.0013734901    6974.7983    8237.0329    15211.831    1011929.8 
   17200           86   0.49927059 0.00028470666    7012.3288    8237.2159    15249.545    1007528.4 
   17300         86.5   0.50174757 -0.00069091101    6924.3751    8278.0823    15202.457    1003157.6 
   17400           87   0.49846065 0.0011423831    7057.7384     8223.853    15281.591    998816.82 
   17500         87.5   0.50492781 0.0012055999    6967.9366    8330.5514    15298.488    994508.32 
   17600           88   0.49788697 0.00072953754    6962.7432    8214.3881    15177.131    990229.97 
   17700         88.5    0.5009403 0.00068262081    6894.8559    8264.7635    15159.619    985981.73 
   17800           89   0.50337936 0.00031918961    6864.6928    8305.0044    15169.697    981765.22 
   17900         89.5   0.49951278 -2.9417028e-05    7024.4338    8241.2116    15265.645     977578.7 
   18000           90   0.50195854 0.00092511834    6897.8153    8281.5629    15179.378    973420.18 
   18100         90.5   0.50225222 0.0004492322    6856.2782    8286.4083    15142.686    969290.09 
   18200           91   0.49600428 -0.00013799935    6954.4244    8183.3265    15137.751    965188.17 
   18300         91.5   0.50356777 0.0014212733    6985.6225    8308.1128    15293.735    961116.05 
   18400           92   0.50396102 0.00078715821    7033.4121    8314.6009    15348.013    957074.75 
   18500         92.5   0.49938724 0.00031667905     6985.635    8239.1403    15224.775    953060.84 
   18600           93   0.50726468 0.0004746518     6830.667    8369.1063    15199.773    949074.09 
   18700         93.5   0.50238607 0.00078536072     6936.566    8288.6165    15225.182    945113.49 
   18800           94     0.494927 0.00043489843    7049.3676    8165.5531    15214.921    941179.61 
   18900         94.5   0.50017555 0.00070448849    6858.6314    8252.1463    15110.778    937272.25 
   19000           95   0.49821207 0.00044569982    6946.5644    8219.7518    15166.316    933391.55 
   19100         95.5   0.49535296 -0.00016006737    6970.2783    8172.5807    15142.859    929538.44 
   19200           96   0.49301543 0.00044649056    6934.8058    8134.0151    15068.821     925710.8 
   19300         96.5   0.50150744 0.0010592787    6872.3718    8274.1206    15146.492    921909.31 
   19400           97   0.50305236 0.0014534241    6938.7814    8299.6094    15238.391    918134.32 
   19500         97.5   0.49588502 0.00074185369    6998.6967    8181.3591    15180.056    914384.93 
   19600           98    0.4965747 0.00068469384    6938.5691    8192.7376    15131.307    910660.26 
   19700         98.5   0.50088531 -0.00013947651    6957.2539    8263.8562     15221.11    906961.41 
   19800           99   0.50288483 0.0020483293    6921.8474    8296.8454    15218.693    903285.54 
   19900         99.5   0.49409142 0.0013533177    6939.3478    8151.7673    15091.115     899635.3 
   20000          100   0.49854674 -1.899943e-05    6928.1712    8225.2734    15153.445    896009.65 
   20100        100.5    0.4977966 0.00028513133    6860.8143    8212.8972    15073.712    892407.16 
   20200          101   0.49497988 0.0011076878     6940.083    8166.4255    15106.508    888827.57 
   20300        101.5   0.49407513 0.00077031748    6922.5782    8151.4985    15074.077    885272.24 
   20400          102   0.49407067 0.00014277658    6869.4132     8151.425    15020.838    881740.95 
   20500        102.5    0.4932864 0.00020335196    6977.0729    8138.4857    15115.559    878232.66 
   20600          103   0.49820046 0.00084570889    6907.2269    8219.5602    15126.787    874746.39 
   20700        103.5   0.49984984 -0.00066863761    6871.5964    8246.7726    15118.369    871283.35 
   20800          104   0.50386487 0.0003286992    6956.0359    8313.0146     15269.05    867841.79 
   20900        104.5   0.49565525 0.0010814086    7006.7575    8177.5681    15184.326    864422.74 
   21000          105   0.49960963 0.00035920555    6962.6842    8242.8095    15205.494    861026.12 
   21100        105.5   0.49992761 0.00071838316     7065.563    8248.0557    15313.619    857650.35 
   21200          106   0.50448833 -0.00028366801    6975.0312    8323.3007    15298.332    854297.42 
   21300        106.5   0.49979587 -0.00029604884    6983.9439    8245.8822    15229.826     850966.4 
   21400          107   0.50179723 0.0021998139    6960.3362    8278.9016    15239.238    847656.04 
   21500        107.5    0.5008858 0.0016288292    6983.5432    8263.8643    15247.408    844367.84 
   21600          108   0.49930276 -0.00012147623    7034.1255    8237.7466    15271.872    841100.64 
   21700        108.5   0.50108093 -0.0020531667     6994.335    8267.0838    15261.419    837854.02 
   21800          109   0.50585841 0.00042470394    7016.6817     8345.905    15362.587    834625.78 
   21900        109.5   0.50853214 0.0011016217    7010.9616    8390.0176    15400.979    831418.69 
   22000          110   0.50553872 -9.584218e-05    6954.0398    8340.6306     15294.67    828232.23 
   22100        110.5   0.49700724 4.6003412e-05    7067.5345    8199.8739    15267.408    825066.49 
   22200          111   0.50175851 0.00074318931    7054.7661    8278.2628    15333.029    821920.23 
   22300        111.5   0.50116302 0.00039035644    7064.5954    8268.4381    15333.033    818794.63 
   22400          112   0.50287508 0.00031158809    7013.5538    8296.6846    15310.238    815688.89 
   22500        112.5   0.50234483 0.0015583321    7021.1112    8287.9362    15309.047    812601.33 
   22600          113   0.49552129  0.000581827    7073.7536     8175.358    15249.112    809533.69 
   22700        113.5   0.50086291 0.0007085643    6953.0591    8263.4868    15216.546    806484.78 
   22800          114   0.50172177 0.00075817863    6919.3012    8277.6567    15196.958    803454.46 
   22900        114.5   0.49346039 0.00050876119    6948.1517    8141.3562    15089.508    800442.24 
   23000          115   0.49463001 0.00049394083    7043.5705    8160.6533    15204.224    797448.01 
   23100        115.5   0.49846022 0.0020837371    6889.2347    8223.8459    15113.081    794472.38 
   23200          116   0.49869866 0.0017575477    7064.6036    8227.7799    15292.384    791516.03 
   23300        116.5    0.5026959 0.0026126757    6937.9214    8293.7284     15231.65    788576.73 
   23400          117   0.50030253 0.00022093248    6989.2268    8254.2413    15243.468    785655.54 
   23500        117.5   0.49870976 -0.003022556    6983.3593     8227.963    15211.322    782752.96 
   23600          118    0.5059143 0.00033251204    6968.9325    8346.8271     15315.76     779866.3 
   23700        118.5    0.4978915  0.002135321    7022.3208    8214.4629    15236.784     776997.9 
   23800          119   0.49274184  0.001103104    6939.6163    8129.5013    15069.118    774147.06 
   23900        119.5   0.49159846 -0.00044650927      7037.88    8110.6372    15148.517    771312.79 
   24000          120   0.50010969 0.00067563724    6907.8514    8251.0597    15158.911     768496.1 
   24100        120.5   0.49201433 0.0010846225    7020.5396    8117.4984    15138.038    765695.79 
   24200          121   0.50126132 0.0023634891    6984.0002    8270.0599     15254.06     762911.4 
   24300        121.5   0.50565798 0.0018951234     6928.553    8342.5981    15271.151    760144.04 
   24400          122   0.49906778 -0.0022649313    6942.1163    8233.8698    15175.986    757394.92 
   24500        122.5   0.49631469 0.0002627673    6935.6503    8188.4479    15124.098    754660.46 
   24600          123   0.49539879  0.001337288    7000.5511    8173.3369    15173.888    751942.41 
   24700        123.5   0.49727096 -0.00068464302    6937.4078    8204.2249    15141.633    749240.78 
   24800          124   0.50187602 0.0014445372    6956.3071    8280.2015    15236.509    746553.99 
   24900        124.5   0.50105731 0.0020369247    6910.9507     8266.694    15177.645    743883.45 
   25000          125   0.50071912 -0.00024274268    6874.8094    8261.1143    15135.924    741228.34 
   25100        125.5   0.49788154 0.0015121399    6982.3852    8214.2986    15196.684     738588.1 
   25200          126    0.4934693 0.00024134923     6966.168    8141.5032    15107.671    735964.49 
   25300        126.5   0.49301539 0.00054866018    6940.3502    8134.0145    15074.365    733354.56 
   25400          127    0.5007276 -0.0010912743    6922.0884    8261.2543    15183.343       730761 
   25500        127.5   0.49679727 0.0015310736    7008.0938    8196.4098    15204.504    728181.96 
   25600          128   0.49857364 0.0010556874    7081.6367    8225.7172    15307.354    725617.97 
   25700        128.5   0.50484641 -0.00022619948    7028.3284    8329.2085    15357.537     723068.8 
   25800          129   0.49713549 -0.00052049748    7040.2196    8201.9898    15242.209    720534.01 
   25900        129.5   0.49711373 0.0012088983    6936.0009    8201.6309    15137.632    718013.29 
   26000          130   0.50052333 0.0010956512    6910.0633    8257.8842    15167.948    715508.03 
   26100        130.5   0.50284684 0.0012013223    6982.2834    8296.2186    15278.502    713016.79 
   26200          131   0.49770953 0.00036007678    7034.5926    8211.4606    15246.053    710540.38 
   26300        131.5   0.50014072 0.0015254157    6900.8539    8251.5716    15152.425    708076.94 
   26400          132   0.50326427 0.0011936575    6971.2179    8303.1055    15274.323    705627.06 
   26500        132.5   0.49814319 0.00060811315    6898.5583    8218.6154    15117.174    703191.74 
   26600          133   0.49303793 -0.00061352485    6972.2603    8134.3862    15106.647     700769.9 
   26700        133.5   0.49333754 0.0002115286    7019.5134    8139.3294    15158.843    698361.63 
   26800          134   0.50439786 0.0030169949     6957.376    8321.8081    15279.184    695965.96 
   26900        134.5   0.50250166 0.0011352859    7163.8412    8290.5237    15454.365    693583.94 
   27000          135   0.50399705 -0.000582717    7024.3071    8315.1954    15339.502       691215 
   27100        135.5   0.50258961 -0.00090946581    6984.1997    8291.9747    15276.174    688860.13 
   27200          136   0.50413459 0.0014538377    6942.5937    8317.4645    15260.058       686518 
   27300        136.5   0.49669544 0.0030785103     6981.325    8194.7296    15176.055    684188.82 
   27400          137   0.50185507 0.00081172479    6981.1623    8279.8558    15261.018    681872.94 
   27500        137.5   0.50082156 -0.0018996109    6975.4119    8262.8045    15238.216    679569.73 
   27600          138   0.49708897 -0.001478015    6944.3568    8201.2223    15145.579    677278.94 
   27700        138.5    0.4949512 0.0014586018     6988.819    8165.9523    15154.771    675000.67 
   27800          139   0.49194985 0.0015100818    7016.9219    8116.4346    15133.356    672735.77 
   27900        139.5   0.49923222 9.8026026e-05    6930.6738    8236.5828    15167.257    670483.73 
   28000          140   0.49555412 0.00041157304    7063.4736    8175.8996    15239.373    668243.14 
   28100        140.5   0.50277166 -0.00053973536    6939.1269    8294.9783    15234.105    666014.68 
   28200          141   0.50614981 0.00016643601    7039.1753    8350.7126    15389.888    663798.41 
   28300        141.5   0.50150111 0.0015905818    7031.4531    8274.0161    15305.469    661594.22 
   28400          142   0.50346933 0.00098833341    7012.7748    8306.4887    15319.264    659401.75 
   28500        142.5   0.49599492 -3.6009124e-05    7004.9448    8183.1722    15188.117    657221.43 
   28600          143   0.50553981 0.0008055303    6807.0657    8340.6486    15147.714    655052.27 
   28700        143.5   0.50052258 0.00037989234     7006.271    8257.8718    15264.143    652894.56 
   28800          144   0.49337326 3.5685841e-05    6955.1554    8139.9187    15095.074    650748.29 
   28900        144.5   0.49297009 0.0024471723    6921.4229     8133.267     15054.69    648612.59 
   29000          145   0.50082047 -7.1917025e-05    6854.3483    8262.7866    15117.135    646489.51 
   29100        145.5   0.49500702 -0.00073111942    7011.1933    8166.8733    15178.067    644377.72 
   29200          146    0.5032845 0.0016228003    7000.7977    8303.4393    15304.237    642276.71 
   29300        146.5   0.50282037 0.00051108134    7008.3095    8295.7818    15304.091    640188.08 
   29400          147   0.49675762 0.00059710386    6982.8084    8195.7556    15178.564    638110.89 
   29500        147.5   0.50194098 -0.00017975888    6876.7112    8281.2733    15157.985     636044.7 
   29600          148     0.495256 0.00084175387    6983.0589    8170.9812     15154.04       633988 
   29700        148.5   0.50185369 0.0022830695    6811.9553    8279.8331    15091.788     631942.5 
   29800          149   0.49653379 2.1087288e-05    6987.9869    8192.0627     15180.05    629908.65 
   29900        149.5   0.49513224 0.0031853383    6936.4793    8168.9392    15105.419    627883.96 
   30000          150   0.50165243 0.0019427643    6840.9014    8276.5126    15117.414    625870.61 
   30100        150.5   0.50313886 -0.00039820032    7002.8798    8301.0364    15303.916    623868.75 
   30200          151   0.49945687 0.00069696171    6987.5361    8240.2893    15227.825    621877.33 
   30300        151.5   0.50446947 0.0031632024    6976.0415    8322.9896    15299.031     619895.2 
   30400          152   0.50171284 0.00036216908    7048.5552    8277.5094    15326.065    617924.06 
   30500        152.5      0.50328  0.002600764     7014.027    8303.3652    15317.392    615961.41 
   30600          153   0.50646582 0.0011709131    6985.8533    8355.9263     15341.78    614009.23 
   30700        153.5    0.5031862 -0.0018340846     7008.164    8301.8176    15309.982     612067.8 
   30800          154   0.50158595 4.2613789e-05     6907.884    8275.4159      15183.3    610135.92 
   30900        154.5   0.50079135 0.00035764145    7010.5289    8262.3061    15272.835    608214.69 
   31000          155   0.49858948 0.0017777688    7038.7771    8225.9785    15264.756    606302.71 
   31100        155.5   0.50365363 0.00083685412    6963.6547    8309.5294    15273.184     604400.3 
   31200          156   0.50130552 0.0018052149    7045.8124    8270.7891    15316.602    602507.74 
   31300        156.5   0.49909976 0.0025952361    6982.9467    8234.3975    15217.344    600624.77 
   31400          157   0.50451255 9.8461211e-05      7008.79    8323.7003     15332.49    598751.95 
   31500        157.5   0.50109263 -0.001754355    7037.2827    8267.2767    15304.559    596888.78 
   31600          158   0.50576096 0.00091473397    6940.9653    8344.2972    15285.263     595034.7 
   31700        158.5   0.49609841  0.002510034     6991.192    8184.8796    15176.072     593189.7 
   31800          159   0.49819193 0.0028555598    6957.5068    8219.4196    15176.926    591353.92 
   31900        159.5   0.49485213 -0.00089043733    6946.3468    8164.3179    15110.665    589527.68 
   32000          160   0.49987779 -0.0010491748    6951.5779    8247.2337    15198.812    587710.39 
   32100        160.5   0.50392038 0.0020380762    6977.5632    8313.9303    15291.494    585903.22 
   32200          161   0.49714425 0.0044888942    6990.3489    8202.1344    15192.483    584104.89 
   32300        161.5   0.50732936 0.00074777659     6937.763    8370.1734    15307.936    582315.98 
   32400          162    0.4947701 0.00059454158    6941.2628    8162.9645    15104.227    580535.46 
   32500        162.5   0.50411864 0.0022727503     6969.656    8317.2013    15286.857    578762.78 
   32600          163   0.50433901 0.00057002844      7000.37    8320.8372    15321.207    576999.35 
   32700        163.5   0.50234003 0.0015902519    6863.1557     8287.857    15151.013    575244.63 
   32800          164    0.4999643 0.0026712311    6877.5141     8248.661    15126.175    573498.03 
   32900        164.5   0.49926402  0.001953103    6820.2534    8237.1074    15057.361    571759.77 
   33000          165   0.49555242 1.6601357e-05    6821.0619    8175.8715    14996.933    570030.52 
   33100        165.5   0.49341671 0.00041450283    6951.8652    8140.6356    15092.501    568309.95 
   33200          166    0.4955222 -0.0014032836    6979.2066    8175.3729     15154.58    566598.84 
   33300        166.5   0.50426856 0.0028133375    7012.1918    8319.6748    15331.867    564894.32 
   33400          167   0.49964294 0.0010319608    6982.1576     8243.359    15225.517    563199.06 
   33500        167.5   0.49468217 -0.00023425626    6913.6982    8161.5138    15075.212    561511.81 
   33600          168   0.50399248 1.4381217e-05    6886.0501      8315.12     15201.17    559833.31 
   33700        168.5   0.49938186 -7.6581307e-05    6963.8995    8239.0515    15202.951    558162.69 
   33800          169   0.50317298 0.0020005955    6994.2372    8301.5994    15295.837    556499.42 
   33900        169.5   0.49423411 0.0010305952    6978.5816    8154.1214    15132.703    554844.49 
   34000          170   0.49273131 -0.00022111991    7049.7965    8129.3276    15179.124    553197.97 
   34100        170.5   0.49707047 -0.00025859689    6983.2262    8200.9172    15184.143    551559.24 
   34200          171   0.49846068 0.00018587318    6984.5885    8223.8535    15208.442    549928.41 
   34300        171.5   0.49564664 0.0019670161    6993.5272    8177.4261    15170.953    548305.43 
   34400          172   0.49494083 0.0020947298    6939.3954    8165.7813    15105.177    546690.22 
   34500        172.5   0.49398724 -0.00065801154    6964.1092    8150.0484    15114.158    545083.15 
   34600          173   0.49953947 0.0013822569     7032.832    8241.6519    15274.484    543482.94 
   34700        173.5   0.49104558 0.0014318129    7001.6549    8101.5156     15103.17    541890.46 
   34800          174   0.49711141 -0.0010959168    6952.8426    8201.5926    15154.435    540305.78 
   34900        174.5   0.49793131 0.0016579345    6969.0328    8215.1197    15184.152    538727.68 
   35000          175   0.49768648 0.00033748312    7003.7908    8211.0804    15214.871    537157.86 
   35100        175.5   0.50334215 0.0032052197    6838.7899    8304.3904     15143.18    535594.59 
   35200          176   0.50201851 0.00078942182     6939.223    8282.5523    15221.775    534040.21 
   35300        176.5     0.506648 0.00037799788    6868.0286     8358.932    15226.961    532493.06 
   35400          177   0.50267211 0.00051479312    6928.0138    8293.3358     15221.35    530953.24 
   35500        177.5   0.50227799 0.0019033196    6987.6714    8286.8334    15274.505    529419.93 
   35600          178   0.49984259 0.00012606267    6939.6703     8246.653    15186.323    527893.69 
   35700        178.5   0.49939087 -0.0013957509    6908.5818    8239.2003    15147.782    526374.75 
   35800          179   0.49723457 0.0025744262    6909.7311    8203.6245    15113.356    524862.64 
   35900        179.5   0.50370808 0.0034570174    7030.6171    8310.4277    15341.045    523358.02 
   36000          180   0.50290957 0.00062056566    7006.7078    8297.2535    15303.961    521860.77 
   36100        180.5   0.50677018 -0.00025896255    6987.7322    8360.9478     15348.68    520370.37 
   36200          181   0.50126251 -0.00029593987    7070.9817    8270.0796    15341.061    518886.66 
   36300        181.5   0.50107499 -0.00031585607    7093.7362    8266.9857    15360.722    517410.02 
   36400          182   0.49755679 0.00045513396    7081.5645    8208.9407    15290.505    515939.54 
   36500        182.5   0.50127663  0.001196084    6895.4732    8270.3125    15165.786    514475.66 
   36600          183   0.49931555 0.0025421718    6866.9429    8237.9576      15104.9     513018.9 
   36700        183.5   0.49995538 0.0010842347     6907.168    8248.5139    15155.682    511569.01 
   36800          184   0.49425607 -0.0021553135    6985.2901    8154.4838    15139.774    510125.66 
   36900        184.5   0.49529053 4.7776567e-05    6954.4303    8171.5509    15125.981    508688.37 
   37000          185   0.49558307 -0.00050873975    7005.8839    8176.3773    15182.261    507258.56 
   37100        185.5   0.50197709 0.00087980843    7021.7503     8281.869    15303.619    505835.08 
   37200          186   0.50204938 0.0014776812     7025.887    8283.0616    15308.949    504418.38 
   37300        186.5   0.50587599 -0.001194142    7000.7672     8346.195    15346.962    503008.19 
   37400          187    0.5027868 -0.0018586261    7084.9022     8295.228     15380.13    501603.81 
   37500        187.5   0.49926076  0.001271391    7023.2272    8237.0536    15260.281    500205.83 
   37600          188   0.49938218 -0.00055542542    6961.7508    8239.0569    15200.808    498814.44 
   37700        188.5    0.5039375 0.0028753721    6933.6601    8314.2128    15247.873    497428.47 
   37800          189    0.5017317 0.0047993527    6846.9984    8277.8205    15124.819    496049.49 
   37900        189.5   0.49823762 0.0036851264    6909.0133    8220.1734    15129.187    494676.97 
   38000          190   0.50039523 -0.00096920418    7099.1261    8255.7707    15354.897    493310.69 
   38100        190.5   0.50410501 0.00030611857    7027.0642    8316.9766    15344.041    491949.77 
   38200          191   0.50553385 0.0044936611    6980.8517    8340.5503    15321.402    490594.91 
   38300        191.5   0.50201819 0.0016365611     6979.021    8282.5471    15261.568    489246.96 
   38400          192   0.49871078 0.00091870407     6986.672    8227.9797    15214.652    487904.57 
   38500        192.5    0.5004261 0.00084510101    6967.6178    8256.2801    15223.898    486567.77 
   38600          193   0.49953218 -0.00084168376    7045.5195    8241.5316    15287.051    485236.64 
   38700        193.5   0.50283922 0.00021631475    6945.9971    8296.0928     15242.09    483911.78 
   38800          194   0.50223063  0.002412261      6968.37    8286.0521    15254.422    482592.59 
   38900        194.5   0.50341292  0.002756635     7001.246    8305.5581    15306.804    481279.22 
   39000          195   0.50375086 0.0015834049    7024.5293    8311.1335    15335.663    479972.17 
   39100        195.5   0.50163613 -0.00080677037    7041.7205    8276.2436    15317.964    478671.17 
   39200          196   0.49910198 0.0018721068    7093.6143     8234.434    15328.048    477375.45 
   39300        196.5    0.5049262 0.0034720231     6928.682    8330.5249    15259.207    476085.75 
   39400          197     0.501272 0.0010078515    7022.0049    8270.2362    15292.241    474802.26 
   39500        197.5    0.4932578 -0.0011426319    7011.3296    8138.0138    15149.343       473524 
   39600          198   0.50074522 0.0017872671    6925.5122     8261.545    15187.057    472250.88 
   39700        198.5   0.49604008 0.00040939206    6900.3352    8183.9173    15084.252    470983.98 
   39800          199   0.49818696 0.0013594126    6977.5083    8219.3376    15196.846    469722.31 
   39900        199.5   0.49280698 0.0015417859    6949.8633     8130.576    15080.439     468465.5 
   40000          200   0.50442821 0.0023636828    6833.8307    8322.3088     15156.14    467213.69 
   40100        200.5   0.50080691 0.0020175511    7036.5413    8262.5628    15299.104     465967.8 
   40200          201   0.50596046 -0.0018804532    6931.0626    8347.5886    15278.651    464728.14 
   40300        201.5   0.49865509 -7.1214619e-05    6935.2456     8227.061    15162.307    463492.68 
   40400          202   0.49838753 0.0037226091     6862.331    8222.6467    15084.978    462262.16 
   40500        202.5   0.49669493  0.003346964    6856.3362    8194.7213    15051.057    461037.42 
   40600          203   0.50368391 0.0014175218    6911.4357    8310.0289    15221.465    459817.79 
   40700        203.5   0.50455716 -0.00042282024    6974.4452    8324.4364    15298.882    458603.64 
   40800          204   0.50101566 0.00038018097    6935.4975    8266.0069    15201.504    457394.95 
   40900        204.5   0.50169418 0.0021210312    6924.5665    8277.2014    15201.768    456191.51 
   41000          205    0.5032574 0.0020212496    7006.9449    8302.9923    15309.937    454993.74 
   41100        205.5   0.49625447 0.00037180983    7002.2305    8187.4544    15189.685    453800.92 
   41200          206   0.49288312 0.0014767983    6918.1847    8131.8321    15050.017    452612.13 
   41300        206.5   0.49956969 0.0030781827    6932.7964    8242.1505    15174.947    451428.56 
   41400          207    0.5022856 -0.00059613069    6913.1994     8286.959    15200.158    450250.46 
   41500        207.5   0.50134966 0.0033530556    6979.3337    8271.5174    15250.851    449076.69 
   41600          208   0.50147205 0.0014734421    7043.5328    8273.5367     15317.07    447908.96 
   41700        208.5   0.50098488 -0.001559029    6843.8128     8265.499    15109.312    446745.83 
   41800          209   0.49963109 0.0012269653    6885.5386    8243.1635    15128.702     445586.9 
   41900        209.5   0.49776917 0.0014428556    6840.8838    8212.4447    15053.328    444433.51 
   42000          210   0.49687161 0.0024227369    6937.9564    8197.6362    15135.593    443284.66 
   42100        210.5   0.50245066 -0.0015694777    7011.0068    8289.6822    15300.689    442141.42 
   42200          211   0.50198612 0.0026410292    7005.4897     8282.018    15287.508    441001.57 
   42300        211.5   0.50023088 0.00045858029    6886.5438    8253.0592    15139.603    439867.07 
   42400          212   0.50123766 0.0014277383    6931.2517    8269.6696    15200.921    438736.78 
   42500        212.5   0.49671936 0.0012570666    7048.9691    8195.1243    15244.093    437611.42 
   42600          213   0.49705514 0.0012237193    6936.9527    8200.6642    15137.617    436490.87 
   42700        213.5   0.49952546 -7.1997828e-05    7033.2609    8241.4207    15274.682    435374.97 
   42800          214   0.50686055 0.00036559577    6933.4296    8362.4387    15295.868     434263.5 
   42900        214.5   0.50797896 0.0010904291    6894.7013    8380.8908    15275.592    433156.75 
   43000          215   0.50370294  0.002111328    6957.7857    8310.3429    15268.129    432054.53 
   43100        215.5   0.49938593 0.0032814665    7011.2456    8239.1187    15250.364    430956.73 
   43200          216   0.49124021 0.00014157772    7039.4671    8104.7265    15144.194     429863.7 
   43300        216.5   0.49900379 0.00062625195    6841.2944     8232.814    15074.108    428774.95 
   43400          217    0.4982378  0.004209583    6863.7281    8220.1764    15083.904    427690.74 
   43500        217.5   0.50082275 0.0025665592    6898.2866    8262.8241    15161.111    426611.61 
   43600          218   0.50210388 -0.0013165366    6943.2145    8283.9608    15227.175    425536.74 
   43700        218.5   0.49862434 -0.0011489744    6991.6605    8226.5536    15218.214    424465.75 
   43800          219   0.50509975 0.0017984249    7028.8247    8333.3882    15362.213    423398.91 
   43900        219.5   0.50581706 0.0027409314    7046.0525    8345.2227    15391.275    422336.36 
   44000          220   0.49947854 0.0010678525    7107.0894    8240.6467    15347.736    421278.33 
   44100        220.5    0.5033042 -0.0016489974    7046.1776    8303.7644    15349.942    420224.53 
   44200          221   0.50408438 -4.8092339e-06     7000.663    8316.6361    15317.299    419175.29 
   44300        221.5   0.50116067 0.0038490967    6992.7057    8268.3994    15261.105    418130.27 
   44400          222   0.50627179 0.0037969912     6975.564    8352.7251    15328.289    417089.84 
   44500        222.5     0.506147 0.0010918671    6904.7093    8350.6663    15255.376    416053.68 
   44600          223   0.50244159  0.002285704    6942.5364    8289.5326    15232.069    415021.16 
   44700        223.5    0.5024805 0.0027248896    6996.8992    8290.1745    15287.074     413992.8 
   44800          224   0.50351741 0.0034513257    6946.4476     8307.282     15253.73    412968.78 
   44900        224.5   0.49852082 0.0016861205    6946.3959    8224.8458    15171.242    411949.51 
   45000          225   0.49638681 0.0021231095    7046.3793    8189.6378    15236.017    410934.23 
   45100        225.5   0.50112475 0.0012290404    6912.0985    8267.8066    15179.905    409923.14 
   45200          226   0.50223037 0.0015748104    6919.1818    8286.0477    15205.229    408915.28 
   45300        226.5   0.50053087 0.0015409673    6981.0937    8258.0085    15239.102    407911.67 
   45400          227   0.50348446 0.0019428286    6889.6837    8306.7383    15196.422    406911.96 
   45500        227.5   0.50689143 -0.00054754333    7034.7177    8362.9483    15397.666    405915.87 
   45600          228    0.5077621 0.00094589863    6973.5448     8377.313    15350.858    404923.09 
   45700        228.5   0.49436667 0.0018427937    7159.5216    8156.3086     15315.83    403934.28 
   45800          229   0.50239224 0.00097526379     7020.678    8288.7184    15309.396    402949.35 
   45900        229.5   0.50034673 0.0012234475    6966.8876    8254.9706    15221.858       401968 
   46000          230    0.4979399 0.0026594641    6992.5598    8215.2615    15207.821    400990.75 
   46100        230.5   0.49775913 0.0011454061    6991.4749     8212.279    15203.754    400018.58 
   46200          231   0.49713688 0.0023637595    6931.0074    8202.0129     15133.02     399050.3 
   46300        231.5   0.49437031 0.00013273848     7018.278    8156.3686    15174.647    398086.04 
   46400          232    0.5027883 -0.0012013302    6923.4638    8295.2528    15218.717    397125.32 
   46500        232.5   0.50302561 0.0021662631    6941.1249     8299.168    15240.293     396167.5 
   46600          233   0.50170025 0.0037274502    6950.5208    8277.3016    15227.822    395214.06 
   46700        233.5   0.49861909 0.00059519728    6980.9133    8226.4671     15207.38    394264.44 
   46800          234   0.49498996 -0.00010668807    6971.0647    8166.5918    15137.657    393318.09 
   46900        234.5   0.49770431 0.0016254219     6967.016    8211.3746    15178.391    392375.67 
   47000          235   0.49325512 0.0034309831    6944.5969    8137.9697    15082.567     391436.6 
   47100        235.5   0.50093775 -6.5608504e-05    6874.6708    8264.7215    15139.392    390501.29 
   47200          236    0.5014754 0.0038609381    6913.0204    8273.5919    15186.612    389568.85 
   47300        236.5   0.49882586 0.0015039931    6957.7573    8229.8785    15187.636    388640.54 
   47400          237   0.50745294 -9.8338844e-05    6867.6829    8372.2123    15239.895    387715.64 
   47500        237.5   0.49858759 0.0046002266    6970.5216    8225.9473    15196.469    386794.48 
   47600          238    0.4994832 0.0046518037    6907.9088    8240.7236    15148.632    385876.93 
   47700        238.5   0.50146849 -0.0026419101     6985.132    8273.4779     15258.61    384962.87 
   47800          239    0.5011019 -0.0021249647    7107.9259    8267.4296    15375.356    384052.13 
   47900        239.5   0.49770419 0.0057702433    6985.3638    8211.3726    15196.736    383144.57 
   48000          240   0.49730449 0.0027485277    6944.4354    8204.7782    15149.214    382241.29 
   48100        240.5   0.50129338 0.0021089052    6940.2995    8270.5888    15210.888    381341.17 
   48200          241   0.50178631 -0.0019137472    6944.1055    8278.7214    15222.827    380445.01 
   48300        241.5   0.50245407  0.001118499    7058.3504    8289.7384    15348.089    379551.51 
   48400          242   0.50917365 -0.0001611254    6963.6074    8400.6014    15364.209    378661.76 
   48500        242.5   0.50597495 0.0041466458    6994.1865    8347.8276    15342.014    377774.49 
   48600          243    0.5030578 0.0034950529    6958.1014    8299.6991      15257.8    376890.87 
   48700        243.5   0.49956458 -0.0029435405    6996.7551    8242.0662    15238.821    376011.41 
   48800          244   0.49633488 -0.0023370325    6903.4792    8188.7811     15092.26    375134.59 
   48900        244.5   0.49873668 0.0054662964    6846.4665    8228.4071    15074.874    374260.36 
   49000          245   0.49739703 0.0021514439    6935.1422    8206.3049    15141.447    373390.61 
   49100        245.5   0.49324613 0.0001913273    6982.5821    8137.8213    15120.403    372524.36 
   49200          246   0.49965038 -0.00012276775    6930.7334    8243.4819    15174.215    371661.27 
   49300        246.5   0.49507448 0.00039177766    6990.8053    8167.9863    15158.792    370801.35 
   49400          247   0.50704101 0.0023816096    6873.0674    8365.4161    15238.483     369944.8 
   49500        247.5   0.50202006  0.004282769    6992.3062     8282.578    15274.884    369091.46 
   49600          248   0.49968847 0.00098995562    6886.5853    8244.1102    15130.696    368241.45 
   49700        248.5   0.49549906   0.00244845    6969.8426    8174.9912    15144.834    367393.91 
   49800          249   0.49830933 0.0038642011    6964.6679    8221.3565    15186.024    366549.64 
   49900        249.5   0.50053367 0.0032950376    6968.5606    8258.0547    15226.615    365708.98 
   50000          250   0.49950432 0.0031438081    7010.0642    8241.0721    15251.136    364870.72 
Loop time of 180.601 on 1 procs for 50000 steps with 11000 atoms

Performance: 119600.477 tau/day, 276.853 timesteps/s
98.8% CPU use with 1 MPI tasks x 1 OpenMP threads

MPI task timing breakdown:
Section |  min time  |  avg time  |  max time  |%varavg| %total
---------------------------------------------------------------
Pair    | 6.7292     | 6.7292     | 6.7292     |   0.0 |  3.73
Bond    | 69.088     | 69.088     | 69.088     |   0.0 | 38.25
Neigh   | 38.999     | 38.999     | 38.999     |   0.0 | 21.59
Comm    | 2.9375     | 2.9375     | 2.9375     |   0.0 |  1.63
Output  | 1.5229     | 1.5229     | 1.5229     |   0.0 |  0.84
Modify  | 59.775     | 59.775     | 59.775     |   0.0 | 33.10
Other   |            | 1.549      |            |       |  0.86

Nlocal:    11000 ave 11000 max 11000 min
Histogram: 1 0 0 0 0 0 0 0 0 0
Nghost:    1849 ave 1849 max 1849 min
Histogram: 1 0 0 0 0 0 0 0 0 0
Neighs:    385 ave 385 max 385 min
Histogram: 1 0 0 0 0 0 0 0 0 0

Total # of neighbors = 385
Ave neighs/atom = 0.035
Ave special neighs/atom = 4.90909
Neighbor list builds = 4842
Dangerous builds = 3431

unfix 2
unfix 3
fix 4 all nve
fix 5 all langevin ${T} ${T} 1 123456
fix 5 all langevin 0.5 ${T} 1 123456
fix 5 all langevin 0.5 0.5 1 123456
fix recen1 all recenter INIT INIT INIT


# RUN
run ${run_steps}
run 2000000
Per MPI rank memory allocation (min/avg/max) = 45.88 | 45.88 | 45.88 Mbytes
Step Time Temp Press PotEng KinEng TotEng Volume 
   50000          250   0.49950432 0.0031438081    7010.0642    8241.0721    15251.136    364870.72 
   50100        250.5   0.49989974 -0.0002936711      6952.09    8247.5959    15199.686    364870.72 
   50200          251   0.50354061 0.00061182412    6993.1694    8307.6647    15300.834    364870.72 
   50300        251.5    0.5003861 0.00039500292    7047.0916    8255.6201    15302.712    364870.72 
   50400          252   0.50010122 0.0035362508     6951.655      8250.92    15202.575    364870.72 
   50500        252.5   0.50124902 0.0034684436     6947.769     8269.857    15217.626    364870.72 
   50600          253   0.50754501 0.0037649316    6850.3398    8373.7313    15224.071    364870.72 
   50700        253.5   0.50139403 0.0028928771    6907.3098    8272.2495    15179.559    364870.72 
   50800          254   0.49934024 0.00042320996    6986.0074     8238.365    15224.372    364870.72 
   50900        254.5    0.4980589 -0.0021200587     7006.088    8217.2248    15223.313    364870.72 
   51000          255   0.49979368  0.003446747    6956.1647     8245.846    15202.011    364870.72 
   51100        255.5   0.49904203 0.0029968727    6978.2817     8233.445    15211.727    364870.72 
   51200          256   0.50534258 0.0022589503    6899.6941    8337.3946    15237.089    364870.72 
   51300        256.5   0.50154116 0.00040048699    6925.7734    8274.6769     15200.45    364870.72 
   51400          257   0.50298262 0.0023890435    6968.4467    8298.4588    15266.906    364870.72 
   51500        257.5   0.50413025 0.0027867211    6991.5382    8317.3929    15308.931    364870.72 
   51600          258   0.50591084 0.0011299259    6974.1601    8346.7699     15320.93    364870.72 
   51700        258.5   0.50048091 -0.00090196073     7025.541    8257.1843    15282.725    364870.72 
   51800          259   0.50177359  0.005316105    7080.9506    8278.5115    15359.462    364870.72 
   51900        259.5   0.50585077 0.0050101963    6939.4279    8345.7789    15285.207    364870.72 
   52000          260   0.50364533 0.00026624746    7007.3046    8309.3925    15316.697    364870.72 
   52100        260.5   0.49921109 0.0014154066    7027.9987    8236.2342    15264.233    364870.72 
   52200          261   0.49635644 0.00075353951    7003.0619    8189.1367    15192.199    364870.72 
   52300        261.5   0.49534865 0.0034233232    6925.5512    8172.5097    15098.061    364870.72 
   52400          262    0.4972003 0.0040888802    6897.1843    8203.0591    15100.243    364870.72 
   52500        262.5   0.49163057 0.00087109926    6920.9195     8111.167    15032.086    364870.72 
   52600          263   0.50107195 -0.0012261331    6921.1635    8266.9356    15188.099    364870.72 
   52700        263.5   0.50231957 0.0046053584    6961.2107    8287.5195     15248.73    364870.72 
   52800          264   0.49863449 0.0067653327    6923.6922    8226.7211    15150.413    364870.72 
   52900        264.5   0.50016279 -0.00064900521    6929.3734    8251.9357    15181.309    364870.72 
   53000          265   0.49875374 -0.00093225176     7069.081    8228.6886     15297.77    364870.72 
   53100        265.5   0.50032436  0.002784658    6935.4863    8254.6014    15190.088    364870.72 
   53200          266   0.49562584 0.0043254865    6988.1008    8177.0829    15165.184    364870.72 
   53300        266.5   0.50100818 0.0020308928    6925.3405    8265.8835    15191.224    364870.72 
   53400          267   0.50012669 -0.0019581901    6998.7975    8251.3402    15250.138    364870.72 
   53500        267.5   0.50124277 0.00043705605    6999.7016    8269.7538    15269.455    364870.72 
   53600          268   0.49275485 0.0015730639    7110.9238     8129.716     15240.64    364870.72 
   53700        268.5   0.49677146 0.0031188162    7004.2403     8195.984    15200.224    364870.72 
   53800          269   0.50149342 0.0012996156    6997.3198    8273.8893    15271.209    364870.72 
   53900        269.5   0.49862547 0.0034098609    6919.4914    8226.5723    15146.064    364870.72 
   54000          270   0.50111808 0.0019307398    6967.7093    8267.6967    15235.406    364870.72 
   54100        270.5   0.49733013 0.0028676725    7047.5756    8205.2011    15252.777    364870.72 
   54200          271    0.5093782 0.0025372045    6923.3746    8403.9763    15327.351    364870.72 
   54300        271.5   0.50334341 0.0023713004     7036.172    8304.4113    15340.583    364870.72 
   54400          272   0.50425067 0.0018238008    6929.2048    8319.3797    15248.585    364870.72 
   54500        272.5   0.50158093 0.0018189991    6926.4044     8275.333    15201.737    364870.72 
   54600          273   0.50040316 0.0028431793    7029.6541    8255.9016    15285.556    364870.72 
   54700        273.5   0.49418167 -0.0010379127     7084.591    8153.2563    15237.847    364870.72 
   54800          274   0.49795069 -0.0012337204    6898.6267    8215.4394    15114.066    364870.72 
   54900        274.5   0.49960068 0.0013663937    7005.2794    8242.6619    15247.941    364870.72 
   55000          275   0.49630929 0.0016741186    7010.4226    8188.3588    15198.781    364870.72 
   55100        275.5    0.5000568 0.0021785082    6993.3784    8250.1871    15243.566    364870.72 
   55200          276   0.50185903 -0.00010692869    6968.4916    8279.9213    15248.413    364870.72 
   55300        276.5   0.50214782 0.0046656633    6928.8417    8284.6858    15213.528    364870.72 
   55400          277   0.50090468 0.0046773385    6953.2365    8264.1758    15217.412    364870.72 
   55500        277.5   0.50486776 0.00025600321    6851.7352    8329.5608    15181.296    364870.72 
   55600          278   0.49610893 -0.002583924    6933.1025    8185.0532    15118.156    364870.72 
   55700        278.5   0.50179827 0.00075521528     6943.699    8278.9188    15222.618    364870.72 
   55800          279    0.5030427 0.0018150488    6953.8388      8299.45    15253.289    364870.72 
   55900        279.5    0.5004439 -0.00032749857    6908.2241    8256.5737    15164.798    364870.72 
   56000          280   0.49700664 0.0015426808    7010.9362    8199.8641      15210.8    364870.72 
   56100        280.5    0.5063209 0.0009697071    6928.8213    8353.5353    15282.357    364870.72 
   56200          281   0.49942329 0.0033605321    7034.9191    8239.7352    15274.654    364870.72 
   56300        281.5   0.49742292 0.0010624957    7009.2582    8206.7321     15215.99    364870.72 
   56400          282   0.49643827 -0.0014691164    6919.3164    8190.4869    15109.803    364870.72 
   56500        282.5   0.49687095 0.0002563785    6971.6812    8197.6254    15169.307    364870.72 
   56600          283   0.49419721 0.0005254088    6851.1381    8153.5127    15004.651    364870.72 
   56700        283.5   0.49879865 0.0026053272    6856.0431    8229.4295    15085.473    364870.72 
   56800          284   0.49523671 0.0044967699    6904.1107    8170.6628    15074.774    364870.72 
   56900        284.5   0.49723061 0.0012414992    6958.1983    8203.5592    15161.757    364870.72 
   57000          285   0.49908563 -0.00043052119    6998.5013    8234.1643    15232.666    364870.72 
   57100        285.5   0.49765005 0.00098635551     7018.826    8210.4793    15229.305    364870.72 
   57200          286   0.49926564 0.0054810384    6960.9418    8237.1341    15198.076    364870.72 
   57300        286.5   0.49555222 0.00098822825     6936.138    8175.8684    15112.006    364870.72 
   57400          287   0.49752306 -0.00020089355    7008.9181    8208.3843    15217.302    364870.72 
   57500        287.5   0.50237761  0.002459282     7005.606     8288.477    15294.083    364870.72 
   57600          288   0.50345264  0.004152783    6938.9956    8306.2134    15245.209    364870.72 
   57700        288.5   0.49913247 0.0012838674    6943.0436     8234.937    15177.981    364870.72 
   57800          289   0.50032666 -0.00099951597    7010.8311    8254.6394     15265.47    364870.72 
   57900        289.5   0.49825753 9.2123155e-05    6951.7781    8220.5019     15172.28    364870.72 
   58000          290   0.50157385 0.0018994522    6887.0506    8275.2161    15162.267    364870.72 
   58100        290.5   0.49854445 0.0020244687    7051.0431    8225.2355    15276.279    364870.72 
   58200          291   0.49893687 -0.0015846169     6944.445      8231.71    15176.155    364870.72 
   58300        291.5   0.49491112 0.00022970859    6956.3842    8165.2911    15121.675    364870.72 
   58400          292   0.49969064 0.0046108481    6906.9298    8244.1461    15151.076    364870.72 
   58500        292.5   0.50054433  0.004049233    6943.1777    8258.2307    15201.408    364870.72 
   58600          293    0.5002152 -0.00059939168    6913.1575    8252.8004    15165.958    364870.72 
   58700        293.5   0.49482958 -0.00023597601    6921.9681    8163.9459    15085.914    364870.72 
   58800          294    0.5030051 0.0014118559    6888.2243    8298.8296    15187.054    364870.72 
   58900        294.5   0.49920937 0.0033736097    6982.6931    8236.2057    15218.899    364870.72 
   59000          295   0.50110882 -0.00021964073    6907.1341    8267.5438    15174.678    364870.72 
   59100        295.5   0.50172347 -0.0019415177     6955.601    8277.6847    15233.286    364870.72 
   59200          296   0.50237686  0.002782644    6955.2664    8288.4646    15243.731    364870.72 
   59300        296.5   0.50348686 0.0030920294    6994.2834    8306.7779    15301.061    364870.72 
   59400          297   0.50073923 0.0015862476    6954.4863    8261.4462    15215.933    364870.72 
   59500        297.5   0.49675395 0.00026841251    6999.6782    8195.6951    15195.373    364870.72 
   59600          298   0.49964659 -0.00062257983    6910.2035    8243.4193    15153.623    364870.72 
   59700        298.5   0.49904939 0.0021704006    6965.6522    8233.5664    15199.219    364870.72 
   59800          299   0.49900308 0.0062980259    6962.5662    8232.8023    15195.369    364870.72 
   59900        299.5   0.49401412 0.0013756504    7015.7507     8150.492    15166.243    364870.72 
   60000          300   0.49823942 0.0017483049    6916.6008    8220.2031    15136.804    364870.72 
   60100        300.5   0.50350252  0.001485235     6889.498    8307.0364    15196.534    364870.72 
   60200          301   0.49939089 -0.0018497939    7022.3653    8239.2005    15261.566    364870.72 
   60300        301.5   0.49977213 0.0017922422    7071.4808    8245.4905    15316.971    364870.72 
   60400          302    0.5078639 0.0016251053    6966.0073    8378.9926        15345    364870.72 
   60500        302.5   0.50047443 0.0032257558     7050.861    8257.0774    15307.938    364870.72 
   60600          303   0.50089229 0.0018714765    7037.5698    8263.9715    15301.541    364870.72 
   60700        303.5   0.50146942 0.00090391953    6927.0988    8273.4933    15200.592    364870.72 
   60800          304   0.50016236 -0.0018559837    6883.6371    8251.9287    15135.566    364870.72 
   60900        304.5   0.49686203 0.00032073278    6972.9751    8197.4783    15170.453    364870.72 
   61000          305   0.49735731 0.0021685401    6939.6251    8205.6496    15145.275    364870.72 
   61100        305.5   0.49612883 0.00078688867    6976.7135    8185.3815    15162.095    364870.72 
   61200          306   0.49587199 0.0033718214    6931.9895     8181.144    15113.133    364870.72 
   61300        306.5   0.49826268 -0.00063427172    6947.9794    8220.5869    15168.566    364870.72 
   61400          307   0.49924294 0.0029219099    6913.7985    8236.7597    15150.558    364870.72 
   61500        307.5   0.49874986 0.0020046071    6949.6616    8228.6246    15178.286    364870.72 
   61600          308   0.49665492 0.0025116479     7102.376    8194.0612    15296.437    364870.72 
   61700        308.5    0.5063036 0.0012265237    7022.3097    8353.2499     15375.56    364870.72 
   61800          309   0.49878269 0.00029300404     6977.524    8229.1662     15206.69    364870.72 
   61900        309.5   0.49843273 -0.00093802547    7033.0896    8223.3924    15256.482    364870.72 
   62000          310   0.49863854 -0.0012137262    6948.4859     8226.788    15175.274    364870.72 
   62100        310.5     0.501402 0.0002016385    6973.4012    8272.3809    15245.782    364870.72 
   62200          311   0.50246831 -0.0033227014    7078.8283    8289.9735    15368.802    364870.72 
   62300        311.5   0.49810584 -0.002962601    7055.0763    8217.9992    15273.075    364870.72 
   62400          312   0.49731336 0.00051176282    6966.5804    8204.9245    15171.505    364870.72 
   62500        312.5   0.50255358 0.0036282801    6949.3467    8291.3802    15240.727    364870.72 
   62600          313   0.50066528 0.0049691482    6919.3117    8260.2262    15179.538    364870.72 
   62700        313.5   0.49396798 -0.0013468128    6997.1233    8149.7307    15146.854    364870.72 
   62800          314   0.49592722 -0.0017371751    6984.6025    8182.0553    15166.658    364870.72 
   62900        314.5   0.50381637 0.0014918013    6916.0292    8312.2145    15228.244    364870.72 
   63000          315   0.49860114 0.0026951761    7124.3118     8226.171    15350.483    364870.72 
   63100        315.5   0.49844058 0.0020543483    7055.4798    8223.5219    15279.002    364870.72 
   63200          316   0.50068109 0.0037708362    7048.1686     8260.487    15308.656    364870.72 
   63300        316.5   0.50212062 0.00084836752    7004.8324    8284.2371    15289.069    364870.72 
   63400          317   0.50448901 0.00080208083    6917.7932     8323.312    15241.105    364870.72 
   63500        317.5   0.49803164 0.0021640668    6987.8554    8216.7749     15204.63    364870.72 
   63600          318   0.50385738 0.0018155739    7014.1932     8312.891    15327.084    364870.72 
   63700        318.5   0.49943683 0.00041918069    7018.4056    8239.9585    15258.364    364870.72 
   63800          319   0.50056219 0.0012236461    6982.5681    8258.5254    15241.093    364870.72 
   63900        319.5   0.50727366 0.0021868978     6924.849    8369.2544    15294.103    364870.72 
   64000          320   0.50219104 0.0010359434    7038.1755    8285.3988    15323.574    364870.72 
   64100        320.5    0.5025823 0.0016013135    7016.7057    8291.8541     15308.56    364870.72 
   64200          321   0.50679371 0.0020707724     7017.159     8361.336    15378.495    364870.72 
   64300        321.5   0.49871904 0.0037595858    7125.6982     8228.116    15353.814    364870.72 
   64400          322   0.50348671 0.00060438484    7091.5135    8306.7755    15398.289    364870.72 
   64500        322.5   0.49848112 -0.0022935819    7078.4364    8224.1908    15302.627    364870.72 
   64600          323   0.49944599 0.00030355463    7025.1002    8240.1096     15265.21    364870.72 
   64700        323.5   0.49897895 0.00068121772    7078.1037    8232.4042    15310.508    364870.72 
   64800          324   0.50143359 0.0055785721    7043.7903    8272.9021    15316.692    364870.72 
   64900        324.5   0.49353763 0.0059401979    7102.9992    8142.6306     15245.63    364870.72 
   65000          325   0.49861418 0.0024661148    6941.6222    8226.3861    15168.008    364870.72 
   65100        325.5   0.50173033 -0.00048328948    7075.0409    8277.7979    15352.839    364870.72 
   65200          326   0.49921245 0.00058467319    7119.9266    8236.2565    15356.183    364870.72 
   65300        326.5    0.5005199 0.0010493412    7042.1908    8257.8276    15300.018    364870.72 
   65400          327   0.49973201 0.00067324592    6929.0634    8244.8286    15173.892    364870.72 
   65500        327.5   0.50072864 -0.0013736708     6995.487    8261.2715    15256.759    364870.72 
   65600          328   0.50455673 0.00056817232    6946.4575    8324.4292    15270.887    364870.72 
   65700        328.5    0.5070447 0.0022239344    6948.4266     8365.477    15313.904    364870.72 
   65800          329   0.50386719 -0.0015411479    6968.5073    8313.0529     15281.56    364870.72 
   65900        329.5   0.49766803 -0.0035872437    7110.2131     8210.776    15320.989    364870.72 
   66000          330   0.50553409 0.0058049582    6936.3318    8340.5541    15276.886    364870.72 
   66100        330.5   0.50051569 0.0036422431    6923.3395    8257.7581    15181.098    364870.72 
   66200          331   0.49683153 -0.0024986452    6902.5573    8196.9751    15099.532    364870.72 
   66300        331.5   0.50160178 0.0006318921    6864.7881    8275.6769    15140.465    364870.72 
   66400          332   0.50101361 0.0068795013    6932.7801    8265.9731    15198.753    364870.72 
   66500        332.5   0.50289194 0.0035818075    6919.0445    8296.9627    15216.007    364870.72 
   66600          333   0.50518155 -0.0016395842    7031.0578    8334.7378    15365.796    364870.72 
   66700        333.5   0.50633378 -0.00066458981    7080.9384    8353.7479    15434.686    364870.72 
   66800          334   0.49666085 0.00047144752    6990.6839     8194.159    15184.843    364870.72 
   66900        334.5   0.49877874 -0.0018935094    6967.3785     8229.101    15196.479    364870.72 
   67000          335     0.503095   0.00105227    6907.3986    8300.3128    15207.711    364870.72 
   67100        335.5   0.49805882 0.0015817165    6959.3235    8217.2235    15176.547    364870.72 
   67200          336   0.49931042 0.0045690386    6939.5169     8237.873     15177.39    364870.72 
   67300        336.5   0.50358542 -4.1060604e-05    6907.8098     8308.404    15216.214    364870.72 
   67400          337   0.50183479  0.001108707    6964.3291    8279.5213     15243.85    364870.72 
   67500        337.5    0.5022645 0.0031397829    6972.2428    8286.6109    15258.854    364870.72 
   67600          338   0.50095863  0.001603322    6995.6426     8265.066    15260.709    364870.72 
   67700        338.5   0.50474628 -0.00083748121    7047.3244    8327.5566    15374.881    364870.72 
   67800          339   0.50990314 0.0029525994    6948.4175     8412.637    15361.055    364870.72 
   67900        339.5   0.51122408 0.00029461354    7021.5103    8434.4304    15455.941    364870.72 
   68000          340   0.50450803  0.003023197    7064.9955    8323.6257    15388.621    364870.72 
   68100        340.5    0.5038968 0.0024430709    7046.9091    8313.5413     15360.45    364870.72 
   68200          341   0.50088263 0.00092739539    7016.6602     8263.812    15280.472    364870.72 
   68300        341.5   0.49650206 0.0002570427    6984.1528    8191.5393    15175.692    364870.72 
   68400          342   0.49672217 0.0031699446    6884.4757    8195.1707    15079.646    364870.72 
   68500        342.5   0.49824655 -0.00011640642    6883.8271    8220.3207    15104.148    364870.72 
   68600          343   0.49785986 0.0013605561    6965.1727    8213.9408    15179.114    364870.72 
   68700        343.5   0.49977798 -0.00030688977    6951.3561    8245.5869    15196.943    364870.72 
   68800          344   0.50731861 0.0037076098    6895.2021    8369.9961    15265.198    364870.72 
   68900        344.5   0.49727056  0.001383645     6929.608    8204.2183    15133.826    364870.72 
   69000          345   0.49900909 0.0008853504    6832.7022    8232.9014    15065.604    364870.72 
   69100        345.5   0.49557011 0.0010297158    6964.2902    8176.1635    15140.454    364870.72 
   69200          346   0.49798362 0.00063794664    6928.7261    8215.9827    15144.709    364870.72 
   69300        346.5   0.50544807 -0.00040342744    6960.6698     8339.135    15299.805    364870.72 
   69400          347   0.50037651 0.0010687057    6959.5954    8255.4618    15215.057    364870.72 
   69500        347.5   0.50286875 0.0021314926    6852.8359    8296.5801    15149.416    364870.72 
   69600          348   0.50223827 0.0021255982    6957.1203    8286.1781    15243.298    364870.72 
   69700        348.5   0.49815735 0.0039247799    7047.1057     8218.849    15265.955    364870.72 
   69800          349   0.50070597 0.0029731768    6897.2828    8260.8975     15158.18    364870.72 
   69900        349.5   0.49953507 -0.00090635368    6978.7953    8241.5794    15220.375    364870.72 
   70000          350   0.49868863 -0.0016929502    6947.9403    8227.6144    15175.555    364870.72 
   70100        350.5   0.49859666 0.0038153978    6974.6345     8226.097    15200.732    364870.72 
   70200          351   0.49882991 0.0014983663    6951.4078    8229.9453    15181.353    364870.72 
   70300        351.5   0.50456042 0.0021221315    6894.6613      8324.49    15219.151    364870.72 
   70400          352   0.50078406 0.00051587069    6949.6264    8262.1858    15211.812    364870.72 
   70500        352.5   0.50604506 -0.00050129153    6845.0168    8348.9844    15194.001    364870.72 
   70600          353   0.49784608 0.00058557751     6951.527    8213.7135     15165.24    364870.72 
   70700        353.5   0.50091933 0.0048465685    6943.6559    8264.4176    15208.074    364870.72 
   70800          354   0.49968836 0.0015556517    6977.8115    8244.1085     15221.92    364870.72 
   70900        354.5   0.50349465 0.0016007715    6964.8363    8306.9065    15271.743    364870.72 
   71000          355   0.50136754 0.0036323671    7046.0319    8271.8123    15317.844    364870.72 
   71100        355.5   0.50135402 0.00076806129    7002.0693    8271.5894    15273.659    364870.72 
   71200          356   0.49506865 0.0030403887    6941.1963    8167.8902    15109.086    364870.72 
   71300        356.5   0.50059505 0.0060180017     6935.401    8259.0674    15194.468    364870.72 
   71400          357   0.49824192 0.00010716814    6992.1229    8220.2444    15212.367    364870.72 
   71500        357.5   0.49684749 -0.00073765247    7044.1016    8197.2383     15241.34    364870.72 
   71600          358    0.5042705 0.0028596225    7011.5579    8319.7068    15331.265    364870.72 
   71700        358.5   0.50311688 0.0026351734    7030.9788    8300.6738    15331.653    364870.72 
   71800          359   0.50372703 0.00098707385    6911.8683    8310.7404    15222.609    364870.72 
   71900        359.5   0.49471418 0.00063069056    7067.4426     8162.042    15229.485    364870.72 
   72000          360   0.50032138 0.00012311894     6926.185    8254.5522    15180.737    364870.72 
   72100        360.5   0.50294299 0.0029341562    7010.8429    8297.8049    15308.648    364870.72 
   72200          361   0.50273574 -0.0019629621    6923.4954    8294.3856    15217.881    364870.72 
   72300        361.5   0.50515664 0.00094999811    7045.4629    8334.3269     15379.79    364870.72 
   72400          362    0.5086648  0.003546819    6985.6102    8392.2062    15377.816    364870.72 
   72500        362.5   0.50303019 0.0016083129    6941.3939    8299.2436    15240.637    364870.72 
   72600          363   0.50234859 -0.0029833616    6835.9928    8287.9983    15123.991    364870.72 
   72700        363.5    0.4993651 0.00011053777    6947.7875    8238.7751    15186.563    364870.72 
   72800          364   0.49827077 0.0053991065    6910.5955    8220.7203    15131.316    364870.72 
   72900        364.5   0.49980749 0.0048199304    6842.3249    8246.0739    15088.399    364870.72 
   73000          365   0.50326121 -0.00025071329    6930.3519    8303.0551    15233.407    364870.72 
   73100        365.5   0.50367976 -0.0011165143    6894.6318    8309.9605    15204.592    364870.72 
   73200          366   0.49917457 0.00065189323    6973.9261    8235.6317    15209.558    364870.72 
   73300        366.5   0.50555026 0.0020498977    6895.7273    8340.8209    15236.548    364870.72 
   73400          367   0.50009042 0.0028096401    7056.3592    8250.7418    15307.101    364870.72 
   73500        367.5   0.49728906 0.00026598346    6973.7975    8204.5235    15178.321    364870.72 
   73600          368   0.49447771 -0.0014307801    7002.4133    8158.1405    15160.554    364870.72 
   73700        368.5    0.5035989 0.0012592023    6965.7659    8308.6265    15274.392    364870.72 
   73800          369   0.49949381 0.0012071002    6954.4603    8240.8986    15195.359    364870.72 
   73900        369.5   0.49574196 0.0022660436     6982.235    8178.9987    15161.234    364870.72 
   74000          370    0.4992056 0.0003372888    6938.9798    8236.1435    15175.123    364870.72 
[...]
  211600         1058   0.50438797 -0.00049396644    6983.7982    8321.6449    15305.443    364870.72 
  211700       1058.5   0.50395987 2.0991197e-05    7007.4907    8314.5819    15322.073    364870.72 
  211800         1059   0.50421131 0.0025893739     6967.834    8318.7304    15286.564    364870.72 
  211900       1059.5   0.50131208 0.0014550251    6942.3583    8270.8973    15213.256    364870.72 
  212000         1060   0.50472983 0.00057145275    6845.6542    8327.2851    15172.939    364870.72 
  212100       1060.5   0.49821443 0.0012607234    6911.1328    8219.7907    15130.924    364870.72 
  212200         1061   0.50335734 0.0021731002    6867.3615    8304.6411    15172.003    364870.72 
  212300       1061.5   0.50129022 0.0031261081    6894.8524    8270.5366    15165.389    364870.72 
  212400         1062   0.49894591 0.0021073234    6898.6522    8231.8592    15130.511    364870.72 
  212500       1062.5   0.49505499 0.00085403464    6892.1122    8167.6648    15059.777    364870.72 
  212600         1063   0.50414659 -0.0010405244    6809.3426    8317.6626    15127.005    364870.72 
  212700       1063.5   0.49958197 0.0025211982    6941.2802    8242.3531    15183.633    364870.72 
  212800         1064   0.50122828 0.00074975204    6948.9495    8269.5148    15218.464    364870.72 
  212900       1064.5   0.49962461 0.0020778679     6946.982    8243.0565    15190.039    364870.72 
  213000         1065   0.50662174 -0.00028860827     6942.628    8358.4988    15301.127    364870.72 
  213100       1065.5   0.49959998 0.0040189793    6973.2467    8242.6503    15215.897    364870.72 
  213200         1066   0.50120739 0.0011122329    7016.3046    8269.1702    15285.475    364870.72 
  213300       1066.5   0.50592599 0.0021678415    7014.0111      8347.02    15361.031    364870.72 
  213400         1067   0.49859819 0.0040799215     7028.867    8226.1223    15254.989    364870.72 
  213500       1067.5   0.50120548  0.003313218    6975.2078    8269.1386    15244.346    364870.72 
  213600         1068   0.50051542 0.0041689864    6973.0714    8257.7537    15230.825    364870.72 
  213700       1068.5   0.49787225   0.00355777    6948.0106    8214.1453    15162.156    364870.72 
  213800         1069   0.50650282 0.0016053861    6887.5926    8356.5367    15244.129    364870.72 
  213900       1069.5   0.50041582 0.0021232266    6953.6686    8256.1104    15209.779    364870.72 
  214000         1070   0.50136611 0.0037282675    6939.9574    8271.7888    15211.746    364870.72 
  214100       1070.5   0.50056296 0.00078511078    6971.4384     8258.538    15229.976    364870.72 
  214200         1071   0.50264666 -0.0033905851    6972.7713    8292.9159    15265.687    364870.72 
  214300       1071.5   0.49684405 0.00097069374    6949.1691    8197.1815    15146.351    364870.72 
  214400         1072   0.49777921 0.0022152497    7012.3213    8212.6103    15224.932    364870.72 
  214500       1072.5   0.50252149 0.0012410513    6949.9113    8290.8508    15240.762    364870.72 
  214600         1073   0.50102887 -0.00053535493    7007.9239    8266.2248    15274.149    364870.72 
  214700       1073.5   0.50591539 0.0014643242    6921.8346     8346.845     15268.68    364870.72 
  214800         1074    0.4985796 0.0038722593    6989.1043    8225.8155     15214.92    364870.72 
  214900       1074.5   0.49728618 0.0069605159    7025.2668    8204.4761    15229.743    364870.72 
  215000         1075    0.4970327 -0.0017678109    7048.6257    8200.2939     15248.92    364870.72 
  215100       1075.5   0.49674176 -0.0022492492    6937.9903    8195.4939    15133.484    364870.72 
  215200         1076   0.49730502 0.0031306508    6905.2313    8204.7869    15110.018    364870.72 
  215300       1076.5   0.50390205 0.0054529716    6807.6284     8313.628    15121.256    364870.72 
  215400         1077   0.50416354 0.00020995099    6804.5795    8317.9422    15122.522    364870.72 
  215500       1077.5   0.49693222 -0.0006162803    6927.3794    8198.6362    15126.016    364870.72 
  215600         1078   0.49226784  0.000780316    6966.2591    8121.6809     15087.94    364870.72 
  215700       1078.5   0.49735512 0.0038996048    6997.1938    8205.6134    15202.807    364870.72 
  215800         1079   0.49794311 0.0020728076    7043.9831    8215.3144    15259.298    364870.72 
  215900       1079.5   0.49987587 0.0011660993    6940.8107     8247.202    15188.013    364870.72 
  216000         1080   0.49939046 0.0023728956    7022.1879    8239.1934    15261.381    364870.72 
  216100       1080.5   0.50374612 0.00057893683    6965.0494    8311.0554    15276.105    364870.72 
  216200         1081   0.50022117 0.0021594879    7065.4284    8252.8989    15318.327    364870.72 
  216300       1081.5    0.5023358 0.00076892004    6889.8956    8287.7872    15177.683    364870.72 
  216400         1082   0.49544624 0.0021139593    6817.8546    8174.1197    14991.974    364870.72 
  216500       1082.5   0.48990502 0.0022378855    7000.5125     8082.698    15083.211    364870.72 
  216600         1083   0.50130026 -9.8399559e-05    6921.1583    8270.7024    15191.861    364870.72 
  216700       1083.5   0.49884382 0.00020697958    7037.1543    8230.1747    15267.329    364870.72 
  216800         1084   0.50449825  0.000493732    7068.0662    8323.4644    15391.531    364870.72 
  216900       1084.5   0.49385025 0.0015317805    7069.2141    8147.7884    15217.003    364870.72 
  217000         1085   0.50161586 -0.00086021633    6978.8845    8275.9093    15254.794    364870.72 
  217100       1085.5    0.5026885 0.0035157914     6976.799    8293.6063    15270.405    364870.72 
  217200         1086   0.49944617 0.0023073073    6981.2338    8240.1127    15221.347    364870.72 
  217300       1086.5   0.49238451  0.001141754    6982.6314    8123.6058    15106.237    364870.72 
  217400         1087   0.49500725 -8.4880178e-05    6905.0431    8166.8771     15071.92    364870.72 
  217500       1087.5    0.4941087 0.00041894242    7085.5829    8152.0524    15237.635    364870.72 
  217600         1088   0.49869826 0.0011276505    7002.9633    8227.7732    15230.737    364870.72 
  217700       1088.5   0.50299526 0.0026949116    6934.6171    8298.6673    15233.284    364870.72 
  217800         1089   0.49985593 0.0033607905    6932.3696     8246.873    15179.243    364870.72 
  217900       1089.5    0.5015919 0.00072054391    6985.3532     8275.514    15260.867    364870.72 
  218000         1090   0.49629783 -0.00063982041    7053.8136    8188.1698    15241.983    364870.72 
  218100       1090.5    0.4978224 0.0046891208    7115.7436    8213.3229    15329.066    364870.72 
  218200         1091   0.49880552 0.0017955213     6978.198    8229.5429    15207.741    364870.72 
  218300       1091.5   0.50106147 -0.00074826889    6926.8095    8266.7626    15193.572    364870.72 
  218400         1092   0.50603913 0.0045958365    7042.1191    8348.8866    15391.006    364870.72 
  218500       1092.5   0.50821908 0.0051739057    6995.6253    8384.8525    15380.478    364870.72 
  218600         1093   0.51024386 -0.001617145    6956.9084    8418.2582    15375.167    364870.72 
  218700       1093.5   0.50344741 -0.003305033    7060.2066    8306.1271    15366.334    364870.72 
  218800         1094   0.50151031 0.00092308777    6959.5864    8274.1679    15233.754    364870.72 
  218900       1094.5   0.50374163 0.0019725924    6907.2157    8310.9812    15218.197    364870.72 
  219000         1095   0.49931083 0.00049550383    6959.9964    8237.8797    15197.876    364870.72 
  219100       1095.5   0.49893796 0.00064002054    6922.3501    8231.7279    15154.078    364870.72 
  219200         1096   0.49819719 -0.00013155084    6978.3003    8219.5064    15197.807    364870.72 
  219300       1096.5   0.50037395  0.001694996    6927.9437    8255.4196    15183.363    364870.72 
  219400         1097   0.49572557 0.0030170019    6977.7193    8178.7283    15156.448    364870.72 
  219500       1097.5   0.50012321 0.0025208058    6941.6126    8251.2828    15192.895    364870.72 
  219600         1098   0.49759655 0.00068628877    6899.9298    8209.5967    15109.526    364870.72 
  219700       1098.5   0.50459183 0.0035086696    6893.2354    8325.0083    15218.244    364870.72 
  219800         1099   0.49946632 0.0018260201    6970.9349    8240.4452     15211.38    364870.72 
  219900       1099.5   0.50241187 -0.00089235093       6895.8    8289.0423    15184.842    364870.72 
  220000         1100   0.50052228 0.0015330761    6802.1962    8257.8668    15060.063    364870.72 
  220100       1100.5   0.49253814 0.0048847351    7071.7451    8126.1405    15197.886    364870.72 
  220200         1101   0.49821726 0.0016064234    6870.8589    8219.8375    15090.696    364870.72 
  220300       1101.5   0.49263087 -0.0018645709    6828.8041    8127.6704    14956.475    364870.72 
  220400         1102   0.50166475 -0.0010649796    6879.2815    8276.7159    15155.997    364870.72 
  220500       1102.5   0.49136233 0.0033810878    6976.4282    8106.7414     15083.17    364870.72 
  220600         1103   0.50190285 0.0023119414    6882.7596    8280.6442    15163.404    364870.72 
  220700       1103.5   0.49934668 -0.0016227075    6994.1517    8238.4712    15232.623    364870.72 
  220800         1104   0.50006521 0.00092975231    6970.3625    8250.3259    15220.688    364870.72 
  220900       1104.5   0.50081513 0.00010385137    6964.4333    8262.6983    15227.132    364870.72 
  221000         1105   0.50378295 0.0037507953    7016.0528    8311.6629    15327.716    364870.72 
  221100       1105.5    0.5009028 0.0036352047    7057.7329    8264.1448    15321.878    364870.72 
  221200         1106    0.5029361 0.0022378348    7008.1425    8297.6912    15305.834    364870.72 
  221300       1106.5   0.50194697 0.0028439543    6983.4678    8281.3721     15264.84    364870.72 
  221400         1107   0.49703145 0.00055147576     6991.313    8200.2733    15191.586    364870.72 
  221500       1107.5   0.50274233  0.003537591    6976.2405    8294.4944    15270.735    364870.72 
  221600         1108   0.50146869 0.0024684448    6986.9577    8273.4812    15260.439    364870.72 
  221700       1108.5   0.50464118  0.001838271    6922.5406    8325.8226    15248.363    364870.72 
  221800         1109   0.50277773 0.0031227349      6947.69    8295.0784    15242.768    364870.72 
  221900       1109.5   0.49873603 0.0008399405    6946.9176    8228.3965    15175.314    364870.72 
  222000         1110   0.49464565  0.001407094    7038.5575    8160.9112    15199.469    364870.72 
  222100       1110.5   0.49920912 0.0037568612    7083.5404    8236.2017    15319.742    364870.72 
  222200         1111   0.51269445 0.0032937878      7002.52    8458.6894    15461.209    364870.72 
  222300       1111.5   0.50171302 -0.0031675593    6992.3083    8277.5123    15269.821    364870.72 
  222400         1112   0.49777461 0.0023528076     7064.601    8212.5345    15277.136    364870.72 
  222500       1112.5   0.50082112 0.0018285782    7010.8257    8262.7973    15273.623    364870.72 
  222600         1113   0.50157562 0.0023438573    7012.7419    8275.2453    15287.987    364870.72 
  222700       1113.5   0.49928437 0.0026833003    6951.0103    8237.4432    15188.453    364870.72 
  222800         1114   0.50342714 0.0022728215    6902.6591    8305.7927    15208.452    364870.72 
  222900       1114.5    0.5012002 -0.00070699267    6955.5228    8269.0515    15224.574    364870.72 
  223000         1115   0.50161379 0.0015794596    6933.0656    8275.8751    15208.941    364870.72 
  223100       1115.5   0.49810027 -0.00019030743    6994.3001    8217.9073    15212.207    364870.72 
  223200         1116   0.50154805 -5.3681871e-05    6947.3831    8274.7905    15222.174    364870.72 
  223300       1116.5   0.50503045 0.0023809397    6878.4897    8332.2449    15210.735    364870.72 
  223400         1117   0.50471495 0.0035831859    6933.2639    8327.0396    15260.303    364870.72 
  223500       1117.5   0.49839123 0.0021815304    6980.9074    8222.7076    15203.615    364870.72 
  223600         1118   0.49804099 -0.0016153694    7012.9505    8216.9292     15229.88    364870.72 
  223700       1118.5     0.500188 0.0018488571    7029.8901    8252.3517    15282.242    364870.72 
  223800         1119   0.49949234 0.0017149531    7065.5757    8240.8744     15306.45    364870.72 
  223900       1119.5   0.50008567 0.0037383989    6966.8689    8250.6634    15217.532    364870.72 
  224000         1120   0.49858896 0.0026564228    7017.3797    8225.9699     15243.35    364870.72 
  224100       1120.5    0.5079019 3.223351e-05    6992.5451    8379.6195    15372.165    364870.72 
  224200         1121   0.50323436 0.00015861815    7087.8682    8302.6121     15390.48    364870.72 
  224300       1121.5   0.49705575 0.0011103755     7081.751    8200.6743    15282.425    364870.72 
  224400         1122   0.49977026 0.00046836037    6970.5269    8245.4596    15215.987    364870.72 
  224500       1122.5   0.49520249  0.001394937    7029.0195    8170.0982    15199.118    364870.72 
  224600         1123   0.49857504 -0.00013282543    6958.0707    8225.7404    15183.811    364870.72 
  224700       1123.5   0.50725795 0.0014320058    6976.9033    8368.9953    15345.899    364870.72 
  224800         1124   0.50922189 0.0025664887    7030.5992    8401.3973    15431.996    364870.72 
  224900       1124.5   0.49706513 -0.00093060644    7094.1369     8200.829    15294.966    364870.72 
  225000         1125   0.49890826 7.1606386e-05     6961.614    8231.2379    15192.852    364870.72 
  225100       1125.5   0.49536233 -0.00064101587    7043.2662    8172.7354    15216.002    364870.72 
  225200         1126   0.50113131 0.0017831321    7027.9259    8267.9149    15295.841    364870.72 
  225300       1126.5   0.50486519 -0.00036145078    6958.2729    8329.5183    15287.791    364870.72 
  225400         1127   0.50141111 0.00055564215    7044.6797    8272.5312    15317.211    364870.72 
  225500       1127.5   0.50824213 0.0010644661    7060.6122    8385.2328    15445.845    364870.72 
  225600         1128   0.50844044 0.0010428795    7054.3848    8388.5046    15442.889    364870.72 
  225700       1128.5   0.49796799  0.002343229    7051.4709    8215.7249    15267.196    364870.72 
  225800         1129    0.5035601 0.0028392541    6971.8648    8307.9863    15279.851    364870.72 
  225900       1129.5   0.50166994 0.00014077967    6890.5673    8276.8016    15167.369    364870.72 
  226000         1130   0.50475814 -0.0016833534    6880.3422    8327.7521    15208.094    364870.72 
  226100       1130.5   0.49879428 0.0032452158    7015.4664    8229.3574    15244.824    364870.72 
  226200         1131   0.50037125 0.0021095301    6887.9505    8255.3751    15143.326    364870.72 
  226300       1131.5   0.50248607 0.0019762634    7020.8101    8290.2664    15311.077    364870.72 
  226400         1132   0.50006353 0.00075142957    7029.3322    8250.2981     15279.63    364870.72 
  226500       1132.5   0.50351951 0.0023921069    7000.9644    8307.3167    15308.281    364870.72 
  226600         1133    0.5025019 0.0017002842    7016.0545    8290.5277    15306.582    364870.72 
  226700       1133.5   0.50056885 0.0029113686    7018.9253    8258.6352    15277.561    364870.72 
  226800         1134    0.5031778 -0.00057429223    6987.8335    8301.6789    15289.512    364870.72 
  226900       1134.5     0.501871   0.00224288    7061.8671    8280.1188    15341.986    364870.72 
  227000         1135   0.49599598 0.0059322176    7084.4144    8183.1897    15267.604    364870.72 
  227100       1135.5   0.50507429 0.0054208986    7017.3036    8332.9682    15350.272    364870.72 
  227200         1136   0.49821536 9.6768269e-05    7019.5388     8219.806    15239.345    364870.72 
  227300       1136.5   0.50201432 -0.00080854027    6993.0791    8282.4832    15275.562    364870.72 
  227400         1137   0.50853947 0.0054568391    7004.8408    8390.1384    15394.979    364870.72 
  227500       1137.5   0.49983515 0.0036890759     7028.073    8246.5301    15274.603    364870.72 
  227600         1138   0.50400909 0.0024644929    7000.0441    8315.3939    15315.438    364870.72 
  227700       1138.5   0.50051522 0.0012677712    7027.7984    8257.7503    15285.549    364870.72 
  227800         1139   0.49846713 -0.00080780848    7017.3031    8223.9599    15241.263    364870.72 
  227900       1139.5   0.49610275 0.0018714367    7061.9647    8184.9512    15246.916    364870.72 
  228000         1140   0.49740084 0.0040152014    7054.2742    8206.3678    15260.642    364870.72 
  228100       1140.5   0.49830399 0.0021578693    6996.6001    8221.2684    15217.868    364870.72 
  228200         1141    0.5053316  0.002242976    6984.3247    8337.2134    15321.538    364870.72 
  228300       1141.5   0.50021474 0.0023376571    7048.5999    8252.7928    15301.393    364870.72 
  228400         1142   0.50024588 0.00055364181    7024.5734    8253.3066     15277.88    364870.72 
  228500       1142.5   0.49392417 0.0022120798    6995.5258     8149.008    15144.534    364870.72 
  228600         1143   0.49941989 0.0051020752     6938.612     8239.679    15178.291    364870.72 
  228700       1143.5   0.49151208 5.9688245e-05    7057.1097    8109.2121    15166.322    364870.72 
  228800         1144    0.4999347 -0.0002782577    7027.1134    8248.1726    15275.286    364870.72 
  228900       1144.5   0.50140928 0.0012686422    6990.4381     8272.501    15262.939    364870.72 
  229000         1145   0.49982228 0.0015625222     6893.716     8246.318    15140.034    364870.72 
  229100       1145.5   0.49918721   0.00262705    7031.5074    8235.8402    15267.348    364870.72 
  229200         1146   0.49990103 0.0023309475    7022.3441    8247.6171    15269.961    364870.72 
  229300       1146.5   0.50103748 0.0011005314       7047.1    8266.3669    15313.467    364870.72 
  229400         1147   0.50023074 -0.0012123855    7040.4893    8253.0569    15293.546    364870.72 
  229500       1147.5   0.49970254 0.0037095289     6979.595    8244.3424    15223.937    364870.72 
  229600         1148   0.49271186 0.0023805935    6932.9374    8129.0066    15061.944    364870.72 
  229700       1148.5   0.50373858 0.00026983968     6929.747    8310.9309    15240.678    364870.72 
  229800         1149   0.50325342 0.0028202432    6990.7244    8302.9265    15293.651    364870.72 
  229900       1149.5    0.5013695 0.0045667018    6937.5362    8271.8447    15209.381    364870.72 
  230000         1150   0.50067797 0.0019608531    6945.7757    8260.4355    15206.211    364870.72 
  230100       1150.5   0.50223588 0.0027399645    6903.5507    8286.1387    15189.689    364870.72 
  230200         1151    0.5019161 0.0029086324    6925.7666    8280.8627    15206.629    364870.72 
  230300       1151.5   0.49779564 2.5818765e-05    7025.2552    8212.8813    15238.136    364870.72 
  230400         1152   0.49598385 -0.0011518408    7047.3035    8182.9896    15230.293    364870.72 
  230500       1152.5   0.49791663 0.0033594372    6968.0927    8214.8776     15182.97    364870.72 
  230600         1153   0.49740814 0.0008655488    6909.1939    8206.4882    15115.682    364870.72 
  230700       1153.5   0.49940323 0.00047547568    6982.2959    8239.4041      15221.7    364870.72 
  230800         1154   0.49839352 0.00041336102    6983.3828    8222.7455    15206.128    364870.72 
  230900       1154.5   0.49800655 0.0026117867    6851.1553     8216.361    15067.516    364870.72 
  231000         1155   0.50237612 0.0002402977     6935.906    8288.4524    15224.358    364870.72 
  231100       1155.5   0.50409292 -0.00032520962    7044.4178     8316.777    15361.195    364870.72 
  231200         1156   0.50407878 0.00083547026    6978.2369    8316.5438    15294.781    